
                                 *****************
                                 * O   R   C   A *
                                 *****************

           --- An Ab Initio, DFT and Semiempirical electronic structure package ---

                  #######################################################
                  #                        -***-                        #
                  #  Department of molecular theory and spectroscopy    #
                  #              Directorship: Frank Neese              #
                  # Max Planck Institute for Chemical Energy Conversion #
                  #                  D-45470 Muelheim/Ruhr              #
                  #                       Germany                       #
                  #                                                     #
                  #                  All rights reserved                #
                  #                        -***-                        #
                  #######################################################


                         Program Version 4.0.1.2 - RELEASE -


 With contributions from (in alphabetic order):
   Daniel Aravena         : Magnetic Properties
   Michael Atanasov       : Ab Initio Ligand Field Theory
   Ute Becker             : Parallelization
   Martin Brehm           : Molecular dynamics
   Dmytro Bykov           : SCF Hessian
   Vijay G. Chilkuri      : MRCI spin determinant printing
   Dipayan Datta          : RHF DLPNO-CCSD density
   Achintya Kumar Dutta   : EOM-CC, STEOM-CC
   Dmitry Ganyushin       : Spin-Orbit,Spin-Spin,Magnetic field MRCI
   Yang Guo               : DLPNO-NEVPT2, CIM, IAO-localization
   Andreas Hansen         : Spin unrestricted coupled pair/coupled cluster methods
   Lee Huntington         : MR-EOM, pCC
   Robert Izsak           : Overlap fitted RIJCOSX, COSX-SCS-MP3, EOM
   Christian Kollmar      : KDIIS, OOCD, Brueckner-CCSD(T), CCSD density
   Simone Kossmann        : Meta GGA functionals, TD-DFT gradient, OOMP2, MP2 Hessian
   Martin Krupicka        : AUTO-CI
   Dagmar Lenk            : GEPOL surface
   Dimitrios Liakos       : Extrapolation schemes; parallel MDCI
   Dimitrios Manganas     : ROCIS; embedding schemes
   Dimitrios Pantazis     : SARC Basis sets
   Taras Petrenko         : DFT Hessian,TD-DFT gradient, ASA, ECA, R-Raman, ABS, FL, XAS/XES, NRVS
   Peter Pinski           : DLPNO-MP2
   Christoph Reimann      : Effective Core Potentials
   Marius Retegan         : Local ZFS, SOC
   Christoph Riplinger    : Optimizer, TS searches, QM/MM, DLPNO-CCSD(T), (RO)-DLPNO pert. Triples
   Tobias Risthaus        : Range-separated hybrids, TD-DFT gradient, RPA, STAB
   Michael Roemelt        : Restricted open shell CIS
   Masaaki Saitow         : Open-shell DLPNO
   Barbara Sandhoefer     : DKH picture change effects
   Kantharuban Sivalingam : CASSCF convergence, NEVPT2, FIC-MRCI
   Georgi Stoychev        : AutoAux
   Boris Wezisla          : Elementary symmetry handling
   Frank Wennmohs         : Technical directorship


 We gratefully acknowledge several colleagues who have allowed us to
 interface, adapt or use parts of their codes:
   Stefan Grimme, W. Hujo, H. Kruse,             : VdW corrections, initial TS optimization,
                  C. Bannwarth                     DFT functionals, gCP, sTDA/sTD-DF
   Ed Valeev                                     : LibInt (2-el integral package), F12 methods
   Garnet Chan, S. Sharma, J. Yang, R. Olivares  : DMRG
   Ulf Ekstrom                                   : XCFun DFT Library
   Mihaly Kallay                                 : mrcc  (arbitrary order and MRCC methods)
   Andreas Klamt, Michael Diedenhofen            : otool_cosmo (COSMO solvation model)
   Jiri Pittner, Ondrej Demel                    : Mk-CCSD
   Frank Weinhold                                : gennbo (NPA and NBO analysis)
   Christopher J. Cramer and Donald G. Truhlar   : smd solvation model


 Your calculation uses the libint2 library for the computation of 2-el integrals
 For citations please refer to: http://libint.valeyev.net

 This ORCA versions uses:
   CBLAS   interface :  Fast vector & matrix operations
   LAPACKE interface :  Fast linear algebra routines
   SCALAPACK package :  Parallel linear algebra routines


Your calculation utilizes the basis: 6-31G
   H-He, Li-Ne : W. J. Hehre, R. Ditchfield and J.A. Pople, J. Chem. Phys. 56, 2257 (1972).
                 Note: He and Ne are unpublished basis sets taken from the Gaussian program.
                 Note: Li and B from J. D. Dill and J. A. Pople, J. Chem. Phys. 62, 2921 (1975).
   Na - Ar     : M. M. Francl, W. J. Pietro, W. J. Hehre, J. S. Binkley, M. S. Gordon, 
                 D. J. DeFrees and J. A. Pople, J. Chem. Phys. 77, 3654 (1982).
   K - Zn      : V. A. Rassolov, J. A. Pople, M. A. Ratner, and T. L. Windus, J. Chem. Phys. 109, 1223 (1998).

================================================================================
                                        WARNINGS
                       Please study these warnings very carefully!
================================================================================

Warning: TCutStore was < 0. Adjusted to Thresh (uncritical)

INFO   : the flag for use of LIBINT has been found!

================================================================================
                                       INPUT FILE
================================================================================
NAME = ./task1/1.48986.zm
|  1> !HF RHF 6-31G
|  2>     * int 0 1
|  3>     C 0 0 0 0 0 0 
|  4>     C 1 0 0 1.48986 0 0 
|  5>     H 1 2 0 1.08439 111.2 0
|  6>     H 1 2 3 1.08439 111.2 120
|  7>     H 1 2 3 1.08439 111.2 -120
|  8>     H 2 1 3 1.08439 111.2 180
|  9>     H 2 1 5 1.08439 111.2 120
| 10>     H 2 1 5 1.08439 111.2 240
| 11>     *
| 12>     
| 13> 
| 14>                          ****END OF INPUT****
================================================================================

                       ****************************
                       * Single Point Calculation *
                       ****************************

---------------------------------
CARTESIAN COORDINATES (ANGSTROEM)
---------------------------------
  C      0.000000    0.000000    0.000000
  C      1.489860    0.000000    0.000000
  H     -0.392142    1.011003    0.000000
  H     -0.392142   -0.505501   -0.875554
  H     -0.392142   -0.505501    0.875554
  H      1.882002   -1.011003    0.000000
  H      1.882002   -0.505501   -0.875554
  H      1.882002    1.011003   -0.000000

----------------------------
CARTESIAN COORDINATES (A.U.)
----------------------------
  NO LB      ZA    FRAG     MASS         X           Y           Z
   0 C     6.0000    0    12.011    0.000000    0.000000    0.000000
   1 C     6.0000    0    12.011    2.815427    0.000000    0.000000
   2 H     1.0000    0     1.008   -0.741041    1.910518    0.000000
   3 H     1.0000    0     1.008   -0.741041   -0.955259   -1.654557
   4 H     1.0000    0     1.008   -0.741041   -0.955259    1.654557
   5 H     1.0000    0     1.008    3.556468   -1.910518    0.000000
   6 H     1.0000    0     1.008    3.556468   -0.955259   -1.654557
   7 H     1.0000    0     1.008    3.556468    1.910518   -0.000000

--------------------------------
INTERNAL COORDINATES (ANGSTROEM)
--------------------------------
 C      0   0   0     0.000000000000     0.00000000     0.00000000
 C      1   0   0     1.489860000000     0.00000000     0.00000000
 H      1   2   0     1.084390000000   111.20000000     0.00000000
 H      1   2   3     1.084390000000   111.20000000   120.00000000
 H      1   2   3     1.084390000000   111.20000000  -120.00000000
 H      2   1   3     1.084390000000   111.20000000   180.00000000
 H      2   1   5     1.084390000000   111.20000000   120.00000000
 H      2   1   5     1.084390000000   111.20000000   240.00000000

---------------------------
INTERNAL COORDINATES (A.U.)
---------------------------
 C      0   0   0     0.000000000000     0.00000000     0.00000000
 C      1   0   0     2.815427377884     0.00000000     0.00000000
 H      1   2   0     2.049200122363   111.20000000     0.00000000
 H      1   2   3     2.049200122363   111.20000000   120.00000000
 H      1   2   3     2.049200122363   111.20000000  -120.00000000
 H      2   1   3     2.049200122363   111.20000000   180.00000000
 H      2   1   5     2.049200122363   111.20000000   120.00000000
 H      2   1   5     2.049200122363   111.20000000   240.00000000

---------------------
BASIS SET INFORMATION
---------------------
There are 2 groups of distinct atoms

 Group   1 Type C   : 10s4p contracted to 3s2p pattern {631/31}
 Group   2 Type H   : 4s contracted to 2s pattern {31}

Atom   0C    basis set group =>   1
Atom   1C    basis set group =>   1
Atom   2H    basis set group =>   2
Atom   3H    basis set group =>   2
Atom   4H    basis set group =>   2
Atom   5H    basis set group =>   2
Atom   6H    basis set group =>   2
Atom   7H    basis set group =>   2

Checking for AutoStart:
The File: ./task1/1.48986.gbw exists
Trying to determine its content:
     ... Fine, the file contains calculation information
     ... Fine, the calculation information was read
     ... Fine, the file contains a basis set
     ... Fine, the basis set was read
     ... Fine, the file contains a geometry
     ... Fine, the geometry was read
     ... Fine, the file contains a set of orbitals
     ... Fine, the orbitals can be read
     => possible old guess file was deleted
     => GBW file was renamed to GES file
     => GES file is set as startup file
     => Guess is set to MORead
     ... now leaving AutoStart

------------------------------------------------------------------------------
                           ORCA GTO INTEGRAL CALCULATION
------------------------------------------------------------------------------

                         BASIS SET STATISTICS AND STARTUP INFO

 # of primitive gaussian shells          ...   52
 # of primitive gaussian functions       ...   68
 # of contracted shells                  ...   22
 # of contracted basis functions         ...   30
 Highest angular momentum                ...    1
 Maximum contraction depth               ...    6
 Integral package used                   ... LIBINT
 Integral threshhold            Thresh   ...  1.000e-10
 Primitive cut-off              TCut     ...  1.000e-11


------------------------------ INTEGRAL EVALUATION ----------------------------


 * One electron integrals 
 Pre-screening matrix                    ... done
 Shell pair data                         ... done (   0.000 sec)

-------------------------------------------------------------------------------
                                 ORCA SCF
-------------------------------------------------------------------------------

------------
SCF SETTINGS
------------
Hamiltonian:
 Ab initio Hamiltonian  Method          .... Hartree-Fock(GTOs)


General Settings:
 Integral files         IntName         .... ./task1/1.48986
 Hartree-Fock type      HFTyp           .... RHF
 Total Charge           Charge          ....    0
 Multiplicity           Mult            ....    1
 Number of Electrons    NEL             ....   18
 Basis Dimension        Dim             ....   30
 Nuclear Repulsion      ENuc            ....     43.0676350925 Eh

Convergence Acceleration:
 DIIS                   CNVDIIS         .... on
   Start iteration      DIISMaxIt       ....    12
   Startup error        DIISStart       ....  0.200000
   # of expansion vecs  DIISMaxEq       ....     5
   Bias factor          DIISBfac        ....   1.050
   Max. coefficient     DIISMaxC        ....  10.000
 Newton-Raphson         CNVNR           .... off
 SOSCF                  CNVSOSCF        .... on
   Start iteration      SOSCFMaxIt      ....   150
   Startup grad/error   SOSCFStart      ....  0.003300
 Level Shifting         CNVShift        .... on
   Level shift para.    LevelShift      ....    0.2500
   Turn off err/grad.   ShiftErr        ....    0.0010
 Zerner damping         CNVZerner       .... off
 Static damping         CNVDamp         .... on
   Fraction old density DampFac         ....    0.7000
   Max. Damping (<1)    DampMax         ....    0.9800
   Min. Damping (>=0)   DampMin         ....    0.0000
   Turn off err/grad.   DampErr         ....    0.1000
 Fernandez-Rico         CNVRico         .... off

SCF Procedure:
 Maximum # iterations   MaxIter         ....   125
 SCF integral mode      SCFMode         .... Direct
   Integral package                     .... LIBINT
 Reset frequeny         DirectResetFreq ....    20
 Integral Threshold     Thresh          ....  1.000e-10 Eh
 Primitive CutOff       TCut            ....  1.000e-11 Eh

Convergence Tolerance:
 Convergence Check Mode ConvCheckMode   .... Total+1el-Energy
 Convergence forced     ConvForced      .... 0
 Energy Change          TolE            ....  1.000e-06 Eh
 1-El. energy change                    ....  1.000e-03 Eh
 Orbital Gradient       TolG            ....  5.000e-05
 Orbital Rotation angle TolX            ....  5.000e-05
 DIIS Error             TolErr          ....  1.000e-06


Diagonalization of the overlap matrix:
Smallest eigenvalue                        ... 9.536e-03
Time for diagonalization                   ...    0.001 sec
Threshold for overlap eigenvalues          ... 1.000e-08
Number of eigenvalues below threshold      ... 0
Time for construction of square roots      ...    0.000 sec
Total time needed                          ...    0.001 sec

---------------------
INITIAL GUESS: MOREAD
---------------------
Guess MOs are being read from file: ./task1/1.48986.ges
Input Geometry matches current geometry (good)
Input basis set matches current basis set (good)
MOs were renormalized
MOs were reorthogonalized (Cholesky)
                      ------------------
                      INITIAL GUESS DONE (   0.0 sec)
                      ------------------
--------------
SCF ITERATIONS
--------------
ITER       Energy         Delta-E        Max-DP      RMS-DP      [F,P]     Damp
               ***  Starting incremental Fock matrix formation  ***
                      *** Initiating the SOSCF procedure ***
                      *** Re-Reading the Fockian *** 
                      *** Removing any level shift *** 
ITER      Energy       Delta-E        Grad      Rot      Max-DP    RMS-DP
  0    -79.08020900 -79.0802089959  0.000001  0.000001  0.000003  0.000000
               *** Restarting incremental Fock matrix formation ***
                 **** Energy Check signals convergence ****
              ***Rediagonalizing the Fockian in SOSCF/NRSCF***

               *****************************************************
               *                     SUCCESS                       *
               *           SCF CONVERGED AFTER   1 CYCLES          *
               *****************************************************


----------------
TOTAL SCF ENERGY
----------------

Total Energy       :          -79.08020900 Eh           -2151.88189 eV

Components:
Nuclear Repulsion  :           43.06763509 Eh            1171.92993 eV
Electronic Energy  :         -122.14784409 Eh           -3323.81182 eV
One Electron Energy:         -190.35073925 Eh           -5179.70695 eV
Two Electron Energy:           68.20289516 Eh            1855.89513 eV

Virial components:
Potential Energy   :         -158.50792821 Eh           -4313.22001 eV
Kinetic Energy     :           79.42771922 Eh            2161.33812 eV
Virial Ratio       :            1.99562482


---------------
SCF CONVERGENCE
---------------

  Last Energy change         ...   -2.0776e-11  Tolerance :   1.0000e-06
  Last MAX-Density change    ...    1.7831e-06  Tolerance :   1.0000e-05
  Last RMS-Density change    ...    1.9500e-07  Tolerance :   1.0000e-06
  Last Orbital Gradient      ...    5.7252e-07  Tolerance :   5.0000e-05
  Last Orbital Rotation      ...    7.5359e-07  Tolerance :   5.0000e-05

             **** THE GBW FILE WAS UPDATED (./task1/1.48986.gbw) ****
             **** DENSITY FILE WAS UPDATED (./task1/1.48986.scfp.tmp) ****
             **** ENERGY FILE WAS UPDATED (./task1/1.48986.en.tmp) ****
----------------
ORBITAL ENERGIES
----------------

  NO   OCC          E(Eh)            E(eV) 
   0   2.0000     -11.207684      -304.9766 
   1   2.0000     -11.206257      -304.9378 
   2   2.0000      -1.049924       -28.5699 
   3   2.0000      -0.876345       -23.8466 
   4   2.0000      -0.659864       -17.9558 
   5   2.0000      -0.567006       -15.4290 
   6   2.0000      -0.532950       -14.5023 
   7   2.0000      -0.501460       -13.6454 
   8   2.0000      -0.370985       -10.0950 
   9   0.0000       0.226777         6.1709 
  10   0.0000       0.257392         7.0040 
  11   0.0000       0.286413         7.7937 
  12   0.0000       0.304170         8.2769 
  13   0.0000       0.363277         9.8853 
  14   0.0000       0.376031        10.2323 
  15   0.0000       0.422410        11.4944 
  16   0.0000       0.715251        19.4630 
  17   0.0000       0.773964        21.0606 
  18   0.0000       0.787147        21.4194 
  19   0.0000       0.859338        23.3838 
  20   0.0000       0.980588        26.6832 
  21   0.0000       1.038035        28.2464 
  22   0.0000       1.135794        30.9065 
  23   0.0000       1.168540        31.7976 
  24   0.0000       1.213719        33.0270 
  25   0.0000       1.219149        33.1747 
  26   0.0000       1.245568        33.8936 
  27   0.0000       1.271159        34.5900 
  28   0.0000       1.357808        36.9478 
  29   0.0000       1.635763        44.5114 

                    ********************************
                    * MULLIKEN POPULATION ANALYSIS *
                    ********************************

-----------------------
MULLIKEN ATOMIC CHARGES
-----------------------
   0 C :   -0.452085
   1 C :   -0.486888
   2 H :    0.153508
   3 H :    0.144745
   4 H :    0.155454
   5 H :    0.158399
   6 H :    0.124228
   7 H :    0.202638
Sum of atomic charges:   -0.0000000

--------------------------------
MULLIKEN REDUCED ORBITAL CHARGES
--------------------------------
  0 C s       :     3.343697  s :     3.343697
      pz      :     1.079530  p :     3.108388
      px      :     0.935321
      py      :     1.093538
  1 C s       :     3.268470  s :     3.268470
      pz      :     1.247450  p :     3.218418
      px      :     0.938171
      py      :     1.032797
  2 H s       :     0.846492  s :     0.846492
  3 H s       :     0.855255  s :     0.855255
  4 H s       :     0.844546  s :     0.844546
  5 H s       :     0.841601  s :     0.841601
  6 H s       :     0.875772  s :     0.875772
  7 H s       :     0.797362  s :     0.797362


                     *******************************
                     * LOEWDIN POPULATION ANALYSIS *
                     *******************************

----------------------
LOEWDIN ATOMIC CHARGES
----------------------
   0 C :   -0.312426
   1 C :   -0.438925
   2 H :    0.108867
   3 H :    0.100249
   4 H :    0.102407
   5 H :    0.167121
   6 H :    0.129119
   7 H :    0.143588

-------------------------------
LOEWDIN REDUCED ORBITAL CHARGES
-------------------------------
  0 C s       :     2.974677  s :     2.974677
      pz      :     1.131450  p :     3.337749
      px      :     1.069798
      py      :     1.136501
  1 C s       :     2.964768  s :     2.964768
      pz      :     1.336825  p :     3.474156
      px      :     1.059332
      py      :     1.078000
  2 H s       :     0.891133  s :     0.891133
  3 H s       :     0.899751  s :     0.899751
  4 H s       :     0.897593  s :     0.897593
  5 H s       :     0.832879  s :     0.832879
  6 H s       :     0.870881  s :     0.870881
  7 H s       :     0.856412  s :     0.856412


                      *****************************
                      * MAYER POPULATION ANALYSIS *
                      *****************************

  NA   - Mulliken gross atomic population
  ZA   - Total nuclear charge
  QA   - Mulliken gross atomic charge
  VA   - Mayer's total valence
  BVA  - Mayer's bonded valence
  FA   - Mayer's free valence

  ATOM       NA         ZA         QA         VA         BVA        FA
  0 C      6.4521     6.0000    -0.4521     3.7740     3.7740     0.0000
  1 C      6.4869     6.0000    -0.4869     3.6647     3.6647    -0.0000
  2 H      0.8465     1.0000     0.1535     0.9360     0.9360    -0.0000
  3 H      0.8553     1.0000     0.1447     0.9300     0.9300     0.0000
  4 H      0.8445     1.0000     0.1555     0.9255     0.9255     0.0000
  5 H      0.8416     1.0000     0.1584     0.9213     0.9213    -0.0000
  6 H      0.8758     1.0000     0.1242     0.8813     0.8813    -0.0000
  7 H      0.7974     1.0000     0.2026     0.9366     0.9366     0.0000

  Mayer bond orders larger than 0.1
B(  0-C ,  1-C ) :   0.9225 B(  0-C ,  2-H ) :   0.9699 B(  0-C ,  3-H ) :   0.9663 
B(  0-C ,  4-H ) :   0.9615 B(  1-C ,  5-H ) :   0.9309 B(  1-C ,  6-H ) :   0.9079 
B(  1-C ,  7-H ) :   0.9596 

-------
TIMINGS
-------

Total SCF time: 0 days 0 hours 0 min 0 sec 

Total time                  ....       0.502 sec
Sum of individual times     ....       0.496 sec  ( 98.8%)

Fock matrix formation       ....       0.491 sec  ( 97.8%)
Diagonalization             ....       0.000 sec  (  0.1%)
Density matrix formation    ....       0.000 sec  (  0.0%)
Population analysis         ....       0.001 sec  (  0.1%)
Initial guess               ....       0.000 sec  (  0.1%)
Orbital Transformation      ....       0.000 sec  (  0.0%)
Orbital Orthonormalization  ....       0.000 sec  (  0.0%)
DIIS solution               ....       0.000 sec  (  0.0%)
SOSCF solution              ....       0.003 sec  (  0.7%)

-------------------------   --------------------
FINAL SINGLE POINT ENERGY       -79.080208995891
-------------------------   --------------------


                            ***************************************
                            *     ORCA property calculations      *
                            ***************************************

                                    ---------------------
                                    Active property flags
                                    ---------------------
   (+) Dipole Moment


------------------------------------------------------------------------------
                       ORCA ELECTRIC PROPERTIES CALCULATION
------------------------------------------------------------------------------

Dipole Moment Calculation                       ... on
Quadrupole Moment Calculation                   ... off
Polarizability Calculation                      ... off
GBWName                                         ... ./task1/1.48986.gbw
Electron density file                           ... ./task1/1.48986.scfp.tmp
The origin for moment calculation is the CENTER OF MASS  = ( 1.407714, -0.032022 -0.055464)

-------------
DIPOLE MOMENT
-------------
                                X             Y             Z
Electronic contribution:      0.07245       0.24061       0.34555
Nuclear contribution   :      0.00000      -0.37886      -0.65621
                        -----------------------------------------
Total Dipole Moment    :      0.07245      -0.13825      -0.31066
                        -----------------------------------------
Magnitude (a.u.)       :      0.34767
Magnitude (Debye)      :      0.88371


Timings for individual modules:

Sum of individual times         ...        0.889 sec (=   0.015 min)
GTO integral calculation        ...        0.367 sec (=   0.006 min)  41.3 %
SCF iterations                  ...        0.522 sec (=   0.009 min)  58.7 %
                             ****ORCA TERMINATED NORMALLY****
TOTAL RUN TIME: 0 days 0 hours 0 minutes 1 seconds 71 msec
