
                                 *****************
                                 * O   R   C   A *
                                 *****************

           --- An Ab Initio, DFT and Semiempirical electronic structure package ---

                  #######################################################
                  #                        -***-                        #
                  #  Department of molecular theory and spectroscopy    #
                  #              Directorship: Frank Neese              #
                  # Max Planck Institute for Chemical Energy Conversion #
                  #                  D-45470 Muelheim/Ruhr              #
                  #                       Germany                       #
                  #                                                     #
                  #                  All rights reserved                #
                  #                        -***-                        #
                  #######################################################


                         Program Version 4.0.1.2 - RELEASE -


 With contributions from (in alphabetic order):
   Daniel Aravena         : Magnetic Properties
   Michael Atanasov       : Ab Initio Ligand Field Theory
   Ute Becker             : Parallelization
   Martin Brehm           : Molecular dynamics
   Dmytro Bykov           : SCF Hessian
   Vijay G. Chilkuri      : MRCI spin determinant printing
   Dipayan Datta          : RHF DLPNO-CCSD density
   Achintya Kumar Dutta   : EOM-CC, STEOM-CC
   Dmitry Ganyushin       : Spin-Orbit,Spin-Spin,Magnetic field MRCI
   Yang Guo               : DLPNO-NEVPT2, CIM, IAO-localization
   Andreas Hansen         : Spin unrestricted coupled pair/coupled cluster methods
   Lee Huntington         : MR-EOM, pCC
   Robert Izsak           : Overlap fitted RIJCOSX, COSX-SCS-MP3, EOM
   Christian Kollmar      : KDIIS, OOCD, Brueckner-CCSD(T), CCSD density
   Simone Kossmann        : Meta GGA functionals, TD-DFT gradient, OOMP2, MP2 Hessian
   Martin Krupicka        : AUTO-CI
   Dagmar Lenk            : GEPOL surface
   Dimitrios Liakos       : Extrapolation schemes; parallel MDCI
   Dimitrios Manganas     : ROCIS; embedding schemes
   Dimitrios Pantazis     : SARC Basis sets
   Taras Petrenko         : DFT Hessian,TD-DFT gradient, ASA, ECA, R-Raman, ABS, FL, XAS/XES, NRVS
   Peter Pinski           : DLPNO-MP2
   Christoph Reimann      : Effective Core Potentials
   Marius Retegan         : Local ZFS, SOC
   Christoph Riplinger    : Optimizer, TS searches, QM/MM, DLPNO-CCSD(T), (RO)-DLPNO pert. Triples
   Tobias Risthaus        : Range-separated hybrids, TD-DFT gradient, RPA, STAB
   Michael Roemelt        : Restricted open shell CIS
   Masaaki Saitow         : Open-shell DLPNO
   Barbara Sandhoefer     : DKH picture change effects
   Kantharuban Sivalingam : CASSCF convergence, NEVPT2, FIC-MRCI
   Georgi Stoychev        : AutoAux
   Boris Wezisla          : Elementary symmetry handling
   Frank Wennmohs         : Technical directorship


 We gratefully acknowledge several colleagues who have allowed us to
 interface, adapt or use parts of their codes:
   Stefan Grimme, W. Hujo, H. Kruse,             : VdW corrections, initial TS optimization,
                  C. Bannwarth                     DFT functionals, gCP, sTDA/sTD-DF
   Ed Valeev                                     : LibInt (2-el integral package), F12 methods
   Garnet Chan, S. Sharma, J. Yang, R. Olivares  : DMRG
   Ulf Ekstrom                                   : XCFun DFT Library
   Mihaly Kallay                                 : mrcc  (arbitrary order and MRCC methods)
   Andreas Klamt, Michael Diedenhofen            : otool_cosmo (COSMO solvation model)
   Jiri Pittner, Ondrej Demel                    : Mk-CCSD
   Frank Weinhold                                : gennbo (NPA and NBO analysis)
   Christopher J. Cramer and Donald G. Truhlar   : smd solvation model


 Your calculation uses the libint2 library for the computation of 2-el integrals
 For citations please refer to: http://libint.valeyev.net

 This ORCA versions uses:
   CBLAS   interface :  Fast vector & matrix operations
   LAPACKE interface :  Fast linear algebra routines
   SCALAPACK package :  Parallel linear algebra routines


Your calculation utilizes the basis: 6-31G
   H-He, Li-Ne : W. J. Hehre, R. Ditchfield and J.A. Pople, J. Chem. Phys. 56, 2257 (1972).
                 Note: He and Ne are unpublished basis sets taken from the Gaussian program.
                 Note: Li and B from J. D. Dill and J. A. Pople, J. Chem. Phys. 62, 2921 (1975).
   Na - Ar     : M. M. Francl, W. J. Pietro, W. J. Hehre, J. S. Binkley, M. S. Gordon, 
                 D. J. DeFrees and J. A. Pople, J. Chem. Phys. 77, 3654 (1982).
   K - Zn      : V. A. Rassolov, J. A. Pople, M. A. Ratner, and T. L. Windus, J. Chem. Phys. 109, 1223 (1998).

================================================================================
                                        WARNINGS
                       Please study these warnings very carefully!
================================================================================

Warning: TCutStore was < 0. Adjusted to Thresh (uncritical)

INFO   : the flag for use of LIBINT has been found!

================================================================================
                                       INPUT FILE
================================================================================
NAME = ./task1/1.52986.zm
|  1> !HF RHF 6-31G
|  2>     * int 0 1
|  3>     C 0 0 0 0 0 0 
|  4>     C 1 0 0 1.52986 0 0 
|  5>     H 1 2 0 1.08439 111.2 0
|  6>     H 1 2 3 1.08439 111.2 120
|  7>     H 1 2 3 1.08439 111.2 -120
|  8>     H 2 1 3 1.08439 111.2 180
|  9>     H 2 1 5 1.08439 111.2 120
| 10>     H 2 1 5 1.08439 111.2 240
| 11>     *
| 12>     
| 13> 
| 14>                          ****END OF INPUT****
================================================================================

                       ****************************
                       * Single Point Calculation *
                       ****************************

---------------------------------
CARTESIAN COORDINATES (ANGSTROEM)
---------------------------------
  C      0.000000    0.000000    0.000000
  C      1.529860    0.000000    0.000000
  H     -0.392142    1.011003    0.000000
  H     -0.392142   -0.505501   -0.875554
  H     -0.392142   -0.505501    0.875554
  H      1.922002   -1.011003    0.000000
  H      1.922002   -0.505501   -0.875554
  H      1.922002    1.011003   -0.000000

----------------------------
CARTESIAN COORDINATES (A.U.)
----------------------------
  NO LB      ZA    FRAG     MASS         X           Y           Z
   0 C     6.0000    0    12.011    0.000000    0.000000    0.000000
   1 C     6.0000    0    12.011    2.891016    0.000000    0.000000
   2 H     1.0000    0     1.008   -0.741041    1.910518    0.000000
   3 H     1.0000    0     1.008   -0.741041   -0.955259   -1.654557
   4 H     1.0000    0     1.008   -0.741041   -0.955259    1.654557
   5 H     1.0000    0     1.008    3.632058   -1.910518    0.000000
   6 H     1.0000    0     1.008    3.632058   -0.955259   -1.654557
   7 H     1.0000    0     1.008    3.632058    1.910518   -0.000000

--------------------------------
INTERNAL COORDINATES (ANGSTROEM)
--------------------------------
 C      0   0   0     0.000000000000     0.00000000     0.00000000
 C      1   0   0     1.529860000000     0.00000000     0.00000000
 H      1   2   0     1.084390000000   111.20000000     0.00000000
 H      1   2   3     1.084390000000   111.20000000   120.00000000
 H      1   2   3     1.084390000000   111.20000000  -120.00000000
 H      2   1   3     1.084390000000   111.20000000   180.00000000
 H      2   1   5     1.084390000000   111.20000000   120.00000000
 H      2   1   5     1.084390000000   111.20000000   240.00000000

---------------------------
INTERNAL COORDINATES (A.U.)
---------------------------
 C      0   0   0     0.000000000000     0.00000000     0.00000000
 C      1   0   0     2.891016423241     0.00000000     0.00000000
 H      1   2   0     2.049200122363   111.20000000     0.00000000
 H      1   2   3     2.049200122363   111.20000000   120.00000000
 H      1   2   3     2.049200122363   111.20000000  -120.00000000
 H      2   1   3     2.049200122363   111.20000000   180.00000000
 H      2   1   5     2.049200122363   111.20000000   120.00000000
 H      2   1   5     2.049200122363   111.20000000   240.00000000

---------------------
BASIS SET INFORMATION
---------------------
There are 2 groups of distinct atoms

 Group   1 Type C   : 10s4p contracted to 3s2p pattern {631/31}
 Group   2 Type H   : 4s contracted to 2s pattern {31}

Atom   0C    basis set group =>   1
Atom   1C    basis set group =>   1
Atom   2H    basis set group =>   2
Atom   3H    basis set group =>   2
Atom   4H    basis set group =>   2
Atom   5H    basis set group =>   2
Atom   6H    basis set group =>   2
Atom   7H    basis set group =>   2

Checking for AutoStart:
The File: ./task1/1.52986.gbw exists
Trying to determine its content:
     ... Fine, the file contains calculation information
     ... Fine, the calculation information was read
     ... Fine, the file contains a basis set
     ... Fine, the basis set was read
     ... Fine, the file contains a geometry
     ... Fine, the geometry was read
     ... Fine, the file contains a set of orbitals
     ... Fine, the orbitals can be read
     => possible old guess file was deleted
     => GBW file was renamed to GES file
     => GES file is set as startup file
     => Guess is set to MORead
     ... now leaving AutoStart

------------------------------------------------------------------------------
                           ORCA GTO INTEGRAL CALCULATION
------------------------------------------------------------------------------

                         BASIS SET STATISTICS AND STARTUP INFO

 # of primitive gaussian shells          ...   52
 # of primitive gaussian functions       ...   68
 # of contracted shells                  ...   22
 # of contracted basis functions         ...   30
 Highest angular momentum                ...    1
 Maximum contraction depth               ...    6
 Integral package used                   ... LIBINT
 Integral threshhold            Thresh   ...  1.000e-10
 Primitive cut-off              TCut     ...  1.000e-11


------------------------------ INTEGRAL EVALUATION ----------------------------


 * One electron integrals 
 Pre-screening matrix                    ... done
 Shell pair data                         ... done (   0.000 sec)

-------------------------------------------------------------------------------
                                 ORCA SCF
-------------------------------------------------------------------------------

------------
SCF SETTINGS
------------
Hamiltonian:
 Ab initio Hamiltonian  Method          .... Hartree-Fock(GTOs)


General Settings:
 Integral files         IntName         .... ./task1/1.52986
 Hartree-Fock type      HFTyp           .... RHF
 Total Charge           Charge          ....    0
 Multiplicity           Mult            ....    1
 Number of Electrons    NEL             ....   18
 Basis Dimension        Dim             ....   30
 Nuclear Repulsion      ENuc            ....     42.5642980035 Eh

Convergence Acceleration:
 DIIS                   CNVDIIS         .... on
   Start iteration      DIISMaxIt       ....    12
   Startup error        DIISStart       ....  0.200000
   # of expansion vecs  DIISMaxEq       ....     5
   Bias factor          DIISBfac        ....   1.050
   Max. coefficient     DIISMaxC        ....  10.000
 Newton-Raphson         CNVNR           .... off
 SOSCF                  CNVSOSCF        .... on
   Start iteration      SOSCFMaxIt      ....   150
   Startup grad/error   SOSCFStart      ....  0.003300
 Level Shifting         CNVShift        .... on
   Level shift para.    LevelShift      ....    0.2500
   Turn off err/grad.   ShiftErr        ....    0.0010
 Zerner damping         CNVZerner       .... off
 Static damping         CNVDamp         .... on
   Fraction old density DampFac         ....    0.7000
   Max. Damping (<1)    DampMax         ....    0.9800
   Min. Damping (>=0)   DampMin         ....    0.0000
   Turn off err/grad.   DampErr         ....    0.1000
 Fernandez-Rico         CNVRico         .... off

SCF Procedure:
 Maximum # iterations   MaxIter         ....   125
 SCF integral mode      SCFMode         .... Direct
   Integral package                     .... LIBINT
 Reset frequeny         DirectResetFreq ....    20
 Integral Threshold     Thresh          ....  1.000e-10 Eh
 Primitive CutOff       TCut            ....  1.000e-11 Eh

Convergence Tolerance:
 Convergence Check Mode ConvCheckMode   .... Total+1el-Energy
 Convergence forced     ConvForced      .... 0
 Energy Change          TolE            ....  1.000e-06 Eh
 1-El. energy change                    ....  1.000e-03 Eh
 Orbital Gradient       TolG            ....  5.000e-05
 Orbital Rotation angle TolX            ....  5.000e-05
 DIIS Error             TolErr          ....  1.000e-06


Diagonalization of the overlap matrix:
Smallest eigenvalue                        ... 1.047e-02
Time for diagonalization                   ...    0.001 sec
Threshold for overlap eigenvalues          ... 1.000e-08
Number of eigenvalues below threshold      ... 0
Time for construction of square roots      ...    0.000 sec
Total time needed                          ...    0.001 sec

---------------------
INITIAL GUESS: MOREAD
---------------------
Guess MOs are being read from file: ./task1/1.52986.ges
Input Geometry matches current geometry (good)
Input basis set matches current basis set (good)
MOs were renormalized
MOs were reorthogonalized (Cholesky)
                      ------------------
                      INITIAL GUESS DONE (   0.0 sec)
                      ------------------
--------------
SCF ITERATIONS
--------------
ITER       Energy         Delta-E        Max-DP      RMS-DP      [F,P]     Damp
               ***  Starting incremental Fock matrix formation  ***
                      *** Initiating the SOSCF procedure ***
                      *** Re-Reading the Fockian *** 
                      *** Removing any level shift *** 
ITER      Energy       Delta-E        Grad      Rot      Max-DP    RMS-DP
  0    -79.08153143 -79.0815314322  0.000001  0.000001  0.000003  0.000000
               *** Restarting incremental Fock matrix formation ***
                 **** Energy Check signals convergence ****
              ***Rediagonalizing the Fockian in SOSCF/NRSCF***

               *****************************************************
               *                     SUCCESS                       *
               *           SCF CONVERGED AFTER   1 CYCLES          *
               *****************************************************


----------------
TOTAL SCF ENERGY
----------------

Total Energy       :          -79.08153143 Eh           -2151.91787 eV

Components:
Nuclear Repulsion  :           42.56429800 Eh            1158.23343 eV
Electronic Energy  :         -121.64582944 Eh           -3310.15130 eV
One Electron Energy:         -189.36594213 Eh           -5152.90925 eV
Two Electron Energy:           67.72011269 Eh            1842.75795 eV

Virial components:
Potential Energy   :         -158.42794873 Eh           -4311.04365 eV
Kinetic Energy     :           79.34641729 Eh            2159.12578 eV
Virial Ratio       :            1.99666165


---------------
SCF CONVERGENCE
---------------

  Last Energy change         ...   -1.9725e-11  Tolerance :   1.0000e-06
  Last MAX-Density change    ...    1.7550e-06  Tolerance :   1.0000e-05
  Last RMS-Density change    ...    1.9506e-07  Tolerance :   1.0000e-06
  Last Orbital Gradient      ...    5.2912e-07  Tolerance :   5.0000e-05
  Last Orbital Rotation      ...    7.2792e-07  Tolerance :   5.0000e-05

             **** THE GBW FILE WAS UPDATED (./task1/1.52986.gbw) ****
             **** DENSITY FILE WAS UPDATED (./task1/1.52986.scfp.tmp) ****
             **** ENERGY FILE WAS UPDATED (./task1/1.52986.en.tmp) ****
----------------
ORBITAL ENERGIES
----------------

  NO   OCC          E(Eh)            E(eV) 
   0   2.0000     -11.210966      -305.0659 
   1   2.0000     -11.209816      -305.0346 
   2   2.0000      -1.040705       -28.3190 
   3   2.0000      -0.879218       -23.9247 
   4   2.0000      -0.655981       -17.8501 
   5   2.0000      -0.563077       -15.3221 
   6   2.0000      -0.529302       -14.4030 
   7   2.0000      -0.499943       -13.6042 
   8   2.0000      -0.373852       -10.1730 
   9   0.0000       0.226951         6.1756 
  10   0.0000       0.259749         7.0681 
  11   0.0000       0.284495         7.7415 
  12   0.0000       0.306166         8.3312 
  13   0.0000       0.360751         9.8165 
  14   0.0000       0.373478        10.1629 
  15   0.0000       0.411120        11.1871 
  16   0.0000       0.731418        19.9029 
  17   0.0000       0.768320        20.9070 
  18   0.0000       0.781702        21.2712 
  19   0.0000       0.857397        23.3310 
  20   0.0000       0.952522        25.9194 
  21   0.0000       1.036514        28.2050 
  22   0.0000       1.132244        30.8099 
  23   0.0000       1.170425        31.8489 
  24   0.0000       1.215211        33.0676 
  25   0.0000       1.222268        33.2596 
  26   0.0000       1.243390        33.8344 
  27   0.0000       1.272917        34.6378 
  28   0.0000       1.350255        36.7423 
  29   0.0000       1.624330        44.2003 

                    ********************************
                    * MULLIKEN POPULATION ANALYSIS *
                    ********************************

-----------------------
MULLIKEN ATOMIC CHARGES
-----------------------
   0 C :   -0.451474
   1 C :   -0.487031
   2 H :    0.153733
   3 H :    0.145423
   4 H :    0.156139
   5 H :    0.158430
   6 H :    0.122806
   7 H :    0.201974
Sum of atomic charges:   -0.0000000

--------------------------------
MULLIKEN REDUCED ORBITAL CHARGES
--------------------------------
  0 C s       :     3.347255  s :     3.347255
      pz      :     1.077371  p :     3.104220
      px      :     0.936028
      py      :     1.090820
  1 C s       :     3.276445  s :     3.276445
      pz      :     1.246117  p :     3.210586
      px      :     0.938586
      py      :     1.025883
  2 H s       :     0.846267  s :     0.846267
  3 H s       :     0.854577  s :     0.854577
  4 H s       :     0.843861  s :     0.843861
  5 H s       :     0.841570  s :     0.841570
  6 H s       :     0.877194  s :     0.877194
  7 H s       :     0.798026  s :     0.798026


                     *******************************
                     * LOEWDIN POPULATION ANALYSIS *
                     *******************************

----------------------
LOEWDIN ATOMIC CHARGES
----------------------
   0 C :   -0.312969
   1 C :   -0.440810
   2 H :    0.108898
   3 H :    0.100742
   4 H :    0.103394
   5 H :    0.167893
   6 H :    0.129223
   7 H :    0.143630

-------------------------------
LOEWDIN REDUCED ORBITAL CHARGES
-------------------------------
  0 C s       :     2.981825  s :     2.981825
      pz      :     1.132212  p :     3.331143
      px      :     1.062170
      py      :     1.136762
  1 C s       :     2.972504  s :     2.972504
      pz      :     1.338346  p :     3.468306
      px      :     1.052361
      py      :     1.077598
  2 H s       :     0.891102  s :     0.891102
  3 H s       :     0.899258  s :     0.899258
  4 H s       :     0.896606  s :     0.896606
  5 H s       :     0.832107  s :     0.832107
  6 H s       :     0.870777  s :     0.870777
  7 H s       :     0.856370  s :     0.856370


                      *****************************
                      * MAYER POPULATION ANALYSIS *
                      *****************************

  NA   - Mulliken gross atomic population
  ZA   - Total nuclear charge
  QA   - Mulliken gross atomic charge
  VA   - Mayer's total valence
  BVA  - Mayer's bonded valence
  FA   - Mayer's free valence

  ATOM       NA         ZA         QA         VA         BVA        FA
  0 C      6.4515     6.0000    -0.4515     3.7817     3.7817     0.0000
  1 C      6.4870     6.0000    -0.4870     3.6740     3.6740     0.0000
  2 H      0.8463     1.0000     0.1537     0.9355     0.9355     0.0000
  3 H      0.8546     1.0000     0.1454     0.9298     0.9298    -0.0000
  4 H      0.8439     1.0000     0.1561     0.9258     0.9258     0.0000
  5 H      0.8416     1.0000     0.1584     0.9209     0.9209    -0.0000
  6 H      0.8772     1.0000     0.1228     0.8818     0.8818    -0.0000
  7 H      0.7980     1.0000     0.2020     0.9365     0.9365    -0.0000

  Mayer bond orders larger than 0.1
B(  0-C ,  1-C ) :   0.9303 B(  0-C ,  2-H ) :   0.9678 B(  0-C ,  3-H ) :   0.9642 
B(  0-C ,  4-H ) :   0.9602 B(  1-C ,  5-H ) :   0.9293 B(  1-C ,  6-H ) :   0.9066 
B(  1-C ,  7-H ) :   0.9578 

-------
TIMINGS
-------

Total SCF time: 0 days 0 hours 0 min 0 sec 

Total time                  ....       0.497 sec
Sum of individual times     ....       0.480 sec  ( 96.5%)

Fock matrix formation       ....       0.475 sec  ( 95.4%)
Diagonalization             ....       0.000 sec  (  0.1%)
Density matrix formation    ....       0.000 sec  (  0.0%)
Population analysis         ....       0.001 sec  (  0.2%)
Initial guess               ....       0.000 sec  (  0.1%)
Orbital Transformation      ....       0.000 sec  (  0.0%)
Orbital Orthonormalization  ....       0.000 sec  (  0.0%)
DIIS solution               ....       0.000 sec  (  0.0%)
SOSCF solution              ....       0.004 sec  (  0.7%)

-------------------------   --------------------
FINAL SINGLE POINT ENERGY       -79.081531432268
-------------------------   --------------------


                            ***************************************
                            *     ORCA property calculations      *
                            ***************************************

                                    ---------------------
                                    Active property flags
                                    ---------------------
   (+) Dipole Moment


------------------------------------------------------------------------------
                       ORCA ELECTRIC PROPERTIES CALCULATION
------------------------------------------------------------------------------

Dipole Moment Calculation                       ... on
Quadrupole Moment Calculation                   ... off
Polarizability Calculation                      ... off
GBWName                                         ... ./task1/1.52986.gbw
Electron density file                           ... ./task1/1.52986.scfp.tmp
The origin for moment calculation is the CENTER OF MASS  = ( 1.445508, -0.032022 -0.055464)

-------------
DIPOLE MOMENT
-------------
                                X             Y             Z
Electronic contribution:      0.06827       0.24077       0.34667
Nuclear contribution   :      0.00000      -0.37886      -0.65621
                        -----------------------------------------
Total Dipole Moment    :      0.06827      -0.13809      -0.30954
                        -----------------------------------------
Magnitude (a.u.)       :      0.34576
Magnitude (Debye)      :      0.87884


Timings for individual modules:

Sum of individual times         ...        0.881 sec (=   0.015 min)
GTO integral calculation        ...        0.366 sec (=   0.006 min)  41.5 %
SCF iterations                  ...        0.516 sec (=   0.009 min)  58.5 %
                             ****ORCA TERMINATED NORMALLY****
TOTAL RUN TIME: 0 days 0 hours 0 minutes 1 seconds 63 msec
