
                                 *****************
                                 * O   R   C   A *
                                 *****************

           --- An Ab Initio, DFT and Semiempirical electronic structure package ---

                  #######################################################
                  #                        -***-                        #
                  #  Department of molecular theory and spectroscopy    #
                  #              Directorship: Frank Neese              #
                  # Max Planck Institute for Chemical Energy Conversion #
                  #                  D-45470 Muelheim/Ruhr              #
                  #                       Germany                       #
                  #                                                     #
                  #                  All rights reserved                #
                  #                        -***-                        #
                  #######################################################


                         Program Version 4.0.1.2 - RELEASE -


 With contributions from (in alphabetic order):
   Daniel Aravena         : Magnetic Properties
   Michael Atanasov       : Ab Initio Ligand Field Theory
   Ute Becker             : Parallelization
   Martin Brehm           : Molecular dynamics
   Dmytro Bykov           : SCF Hessian
   Vijay G. Chilkuri      : MRCI spin determinant printing
   Dipayan Datta          : RHF DLPNO-CCSD density
   Achintya Kumar Dutta   : EOM-CC, STEOM-CC
   Dmitry Ganyushin       : Spin-Orbit,Spin-Spin,Magnetic field MRCI
   Yang Guo               : DLPNO-NEVPT2, CIM, IAO-localization
   Andreas Hansen         : Spin unrestricted coupled pair/coupled cluster methods
   Lee Huntington         : MR-EOM, pCC
   Robert Izsak           : Overlap fitted RIJCOSX, COSX-SCS-MP3, EOM
   Christian Kollmar      : KDIIS, OOCD, Brueckner-CCSD(T), CCSD density
   Simone Kossmann        : Meta GGA functionals, TD-DFT gradient, OOMP2, MP2 Hessian
   Martin Krupicka        : AUTO-CI
   Dagmar Lenk            : GEPOL surface
   Dimitrios Liakos       : Extrapolation schemes; parallel MDCI
   Dimitrios Manganas     : ROCIS; embedding schemes
   Dimitrios Pantazis     : SARC Basis sets
   Taras Petrenko         : DFT Hessian,TD-DFT gradient, ASA, ECA, R-Raman, ABS, FL, XAS/XES, NRVS
   Peter Pinski           : DLPNO-MP2
   Christoph Reimann      : Effective Core Potentials
   Marius Retegan         : Local ZFS, SOC
   Christoph Riplinger    : Optimizer, TS searches, QM/MM, DLPNO-CCSD(T), (RO)-DLPNO pert. Triples
   Tobias Risthaus        : Range-separated hybrids, TD-DFT gradient, RPA, STAB
   Michael Roemelt        : Restricted open shell CIS
   Masaaki Saitow         : Open-shell DLPNO
   Barbara Sandhoefer     : DKH picture change effects
   Kantharuban Sivalingam : CASSCF convergence, NEVPT2, FIC-MRCI
   Georgi Stoychev        : AutoAux
   Boris Wezisla          : Elementary symmetry handling
   Frank Wennmohs         : Technical directorship


 We gratefully acknowledge several colleagues who have allowed us to
 interface, adapt or use parts of their codes:
   Stefan Grimme, W. Hujo, H. Kruse,             : VdW corrections, initial TS optimization,
                  C. Bannwarth                     DFT functionals, gCP, sTDA/sTD-DF
   Ed Valeev                                     : LibInt (2-el integral package), F12 methods
   Garnet Chan, S. Sharma, J. Yang, R. Olivares  : DMRG
   Ulf Ekstrom                                   : XCFun DFT Library
   Mihaly Kallay                                 : mrcc  (arbitrary order and MRCC methods)
   Andreas Klamt, Michael Diedenhofen            : otool_cosmo (COSMO solvation model)
   Jiri Pittner, Ondrej Demel                    : Mk-CCSD
   Frank Weinhold                                : gennbo (NPA and NBO analysis)
   Christopher J. Cramer and Donald G. Truhlar   : smd solvation model


 Your calculation uses the libint2 library for the computation of 2-el integrals
 For citations please refer to: http://libint.valeyev.net

 This ORCA versions uses:
   CBLAS   interface :  Fast vector & matrix operations
   LAPACKE interface :  Fast linear algebra routines
   SCALAPACK package :  Parallel linear algebra routines


Your calculation utilizes the basis: 6-31G
   H-He, Li-Ne : W. J. Hehre, R. Ditchfield and J.A. Pople, J. Chem. Phys. 56, 2257 (1972).
                 Note: He and Ne are unpublished basis sets taken from the Gaussian program.
                 Note: Li and B from J. D. Dill and J. A. Pople, J. Chem. Phys. 62, 2921 (1975).
   Na - Ar     : M. M. Francl, W. J. Pietro, W. J. Hehre, J. S. Binkley, M. S. Gordon, 
                 D. J. DeFrees and J. A. Pople, J. Chem. Phys. 77, 3654 (1982).
   K - Zn      : V. A. Rassolov, J. A. Pople, M. A. Ratner, and T. L. Windus, J. Chem. Phys. 109, 1223 (1998).

================================================================================
                                        WARNINGS
                       Please study these warnings very carefully!
================================================================================

Warning: TCutStore was < 0. Adjusted to Thresh (uncritical)

INFO   : the flag for use of LIBINT has been found!

================================================================================
                                       INPUT FILE
================================================================================
NAME = ./task4/0.72986.zm
|  1> !HF RHF 6-31G
|  2>     * int 0 1
|  3>     C 0 0 0 0 0 0 
|  4>     C 1 0 0 0.72986 0 0 
|  5>     H 1 2 0 1.08439 111.2 0
|  6>     H 1 2 3 1.08439 111.2 120
|  7>     H 1 2 3 1.08439 111.2 -120
|  8>     H 2 1 3 1.08439 111.2 180
|  9>     H 2 1 5 1.08439 111.2 120
| 10>     H 2 1 5 1.08439 111.2 240
| 11>     *
| 12>     
| 13> 
| 14>                          ****END OF INPUT****
================================================================================

                       ****************************
                       * Single Point Calculation *
                       ****************************

---------------------------------
CARTESIAN COORDINATES (ANGSTROEM)
---------------------------------
  C      0.000000    0.000000    0.000000
  C      0.729860    0.000000    0.000000
  H     -0.392142    1.011003    0.000000
  H     -0.392142   -0.505501   -0.875554
  H     -0.392142   -0.505501    0.875554
  H      1.122002   -1.011003    0.000000
  H      1.122002   -0.505501   -0.875554
  H      1.122002    1.011003   -0.000000

----------------------------
CARTESIAN COORDINATES (A.U.)
----------------------------
  NO LB      ZA    FRAG     MASS         X           Y           Z
   0 C     6.0000    0    12.011    0.000000    0.000000    0.000000
   1 C     6.0000    0    12.011    1.379236    0.000000    0.000000
   2 H     1.0000    0     1.008   -0.741041    1.910518    0.000000
   3 H     1.0000    0     1.008   -0.741041   -0.955259   -1.654557
   4 H     1.0000    0     1.008   -0.741041   -0.955259    1.654557
   5 H     1.0000    0     1.008    2.120277   -1.910518    0.000000
   6 H     1.0000    0     1.008    2.120277   -0.955259   -1.654557
   7 H     1.0000    0     1.008    2.120277    1.910518   -0.000000

--------------------------------
INTERNAL COORDINATES (ANGSTROEM)
--------------------------------
 C      0   0   0     0.000000000000     0.00000000     0.00000000
 C      1   0   0     0.729860000000     0.00000000     0.00000000
 H      1   2   0     1.084390000000   111.20000000     0.00000000
 H      1   2   3     1.084390000000   111.20000000   120.00000000
 H      1   2   3     1.084390000000   111.20000000  -120.00000000
 H      2   1   3     1.084390000000   111.20000000   180.00000000
 H      2   1   5     1.084390000000   111.20000000   120.00000000
 H      2   1   5     1.084390000000   111.20000000   240.00000000

---------------------------
INTERNAL COORDINATES (A.U.)
---------------------------
 C      0   0   0     0.000000000000     0.00000000     0.00000000
 C      1   0   0     1.379235516104     0.00000000     0.00000000
 H      1   2   0     2.049200122363   111.20000000     0.00000000
 H      1   2   3     2.049200122363   111.20000000   120.00000000
 H      1   2   3     2.049200122363   111.20000000  -120.00000000
 H      2   1   3     2.049200122363   111.20000000   180.00000000
 H      2   1   5     2.049200122363   111.20000000   120.00000000
 H      2   1   5     2.049200122363   111.20000000   240.00000000

---------------------
BASIS SET INFORMATION
---------------------
There are 2 groups of distinct atoms

 Group   1 Type C   : 10s4p contracted to 3s2p pattern {631/31}
 Group   2 Type H   : 4s contracted to 2s pattern {31}

Atom   0C    basis set group =>   1
Atom   1C    basis set group =>   1
Atom   2H    basis set group =>   2
Atom   3H    basis set group =>   2
Atom   4H    basis set group =>   2
Atom   5H    basis set group =>   2
Atom   6H    basis set group =>   2
Atom   7H    basis set group =>   2
------------------------------------------------------------------------------
                           ORCA GTO INTEGRAL CALCULATION
------------------------------------------------------------------------------

                         BASIS SET STATISTICS AND STARTUP INFO

 # of primitive gaussian shells          ...   52
 # of primitive gaussian functions       ...   68
 # of contracted shells                  ...   22
 # of contracted basis functions         ...   30
 Highest angular momentum                ...    1
 Maximum contraction depth               ...    6
 Integral package used                   ... LIBINT
 Integral threshhold            Thresh   ...  1.000e-10
 Primitive cut-off              TCut     ...  1.000e-11


------------------------------ INTEGRAL EVALUATION ----------------------------


 * One electron integrals 
 Pre-screening matrix                    ... done
 Shell pair data                         ... done (   0.000 sec)

-------------------------------------------------------------------------------
                                 ORCA SCF
-------------------------------------------------------------------------------

------------
SCF SETTINGS
------------
Hamiltonian:
 Ab initio Hamiltonian  Method          .... Hartree-Fock(GTOs)


General Settings:
 Integral files         IntName         .... ./task4/0.72986
 Hartree-Fock type      HFTyp           .... RHF
 Total Charge           Charge          ....    0
 Multiplicity           Mult            ....    1
 Number of Electrons    NEL             ....   18
 Basis Dimension        Dim             ....   30
 Nuclear Repulsion      ENuc            ....     60.6809043121 Eh

Convergence Acceleration:
 DIIS                   CNVDIIS         .... on
   Start iteration      DIISMaxIt       ....    12
   Startup error        DIISStart       ....  0.200000
   # of expansion vecs  DIISMaxEq       ....     5
   Bias factor          DIISBfac        ....   1.050
   Max. coefficient     DIISMaxC        ....  10.000
 Newton-Raphson         CNVNR           .... off
 SOSCF                  CNVSOSCF        .... on
   Start iteration      SOSCFMaxIt      ....   150
   Startup grad/error   SOSCFStart      ....  0.003300
 Level Shifting         CNVShift        .... on
   Level shift para.    LevelShift      ....    0.2500
   Turn off err/grad.   ShiftErr        ....    0.0010
 Zerner damping         CNVZerner       .... off
 Static damping         CNVDamp         .... on
   Fraction old density DampFac         ....    0.7000
   Max. Damping (<1)    DampMax         ....    0.9800
   Min. Damping (>=0)   DampMin         ....    0.0000
   Turn off err/grad.   DampErr         ....    0.1000
 Fernandez-Rico         CNVRico         .... off

SCF Procedure:
 Maximum # iterations   MaxIter         ....   125
 SCF integral mode      SCFMode         .... Direct
   Integral package                     .... LIBINT
 Reset frequeny         DirectResetFreq ....    20
 Integral Threshold     Thresh          ....  1.000e-10 Eh
 Primitive CutOff       TCut            ....  1.000e-11 Eh

Convergence Tolerance:
 Convergence Check Mode ConvCheckMode   .... Total+1el-Energy
 Convergence forced     ConvForced      .... 0
 Energy Change          TolE            ....  1.000e-06 Eh
 1-El. energy change                    ....  1.000e-03 Eh
 Orbital Gradient       TolG            ....  5.000e-05
 Orbital Rotation angle TolX            ....  5.000e-05
 DIIS Error             TolErr          ....  1.000e-06


Diagonalization of the overlap matrix:
Smallest eigenvalue                        ... 2.656e-04
Time for diagonalization                   ...    0.001 sec
Threshold for overlap eigenvalues          ... 1.000e-08
Number of eigenvalues below threshold      ... 0
Time for construction of square roots      ...    0.000 sec
Total time needed                          ...    0.001 sec

-------------------
DFT GRID GENERATION
-------------------

General Integration Accuracy     IntAcc      ...  4.340
Radial Grid Type                 RadialGrid  ... Gauss-Chebyshev
Angular Grid (max. acc.)         AngularGrid ... Lebedev-110
Angular grid pruning method      GridPruning ... 3 (G Style)
Weight generation scheme         WeightScheme... Becke
Basis function cutoff            BFCut       ...    1.0000e-10
Integration weight cutoff        WCut        ...    1.0000e-14
Grids for H and He will be reduced by one unit

# of grid points (after initial pruning)     ...   8076 (   0.0 sec)
# of grid points (after weights+screening)   ...   7688 (   0.0 sec)
nearest neighbour list constructed           ...    0.0 sec
Grid point re-assignment to atoms done       ...    0.0 sec
Grid point division into batches done        ...    0.0 sec
Reduced shell lists constructed in    0.0 sec

Total number of grid points                  ...     7688
Total number of batches                      ...      124
Average number of points per batch           ...       62
Average number of grid points per atom       ...      961
Average number of shells per batch           ...    20.22 (91.93%)
Average number of basis functions per batch  ...    27.89 (92.96%)
Average number of large shells per batch     ...    19.00 (93.95%)
Average number of large basis fcns per batch ...    26.50 (95.04%)
Maximum spatial batch extension              ...  21.29, 20.26, 23.60 au
Average spatial batch extension              ...   4.53,  4.40,  4.25 au

Time for grid setup =    0.060 sec

------------------------------
INITIAL GUESS: MODEL POTENTIAL
------------------------------
Loading Hartree-Fock densities                     ... done
Calculating cut-offs                               ... done
Setting up the integral package                    ... done
Initializing the effective Hamiltonian             ... done
Starting the Coulomb interaction                   ... done (   0.0 sec)
Reading the grid                                   ... done
Mapping shells                                     ... done
Starting the XC term evaluation                    ... done (   0.0 sec)
Transforming the Hamiltonian                       ... done (   0.0 sec)
Diagonalizing the Hamiltonian                      ... done (   0.0 sec)
Back transforming the eigenvectors                 ... done (   0.0 sec)
Now organizing SCF variables                       ... done
                      ------------------
                      INITIAL GUESS DONE (   0.2 sec)
                      ------------------
--------------
SCF ITERATIONS
--------------
ITER       Energy         Delta-E        Max-DP      RMS-DP      [F,P]     Damp
               ***  Starting incremental Fock matrix formation  ***
  0    -76.2896609856   0.000000000000 0.23957752  0.02586803  0.4987871 0.7000
  1    -76.5626816448  -0.273020659216 0.16507679  0.01987870  0.3115084 0.7000
                               ***Turning on DIIS***
  2    -76.7102557500  -0.147574105123 0.09924776  0.01185390  0.1712312 0.7000
  3    -77.4037672946  -0.693511544619 0.21205614  0.01971005  0.0905024 0.0000
  4    -76.8319435341   0.571823760488 0.03377669  0.00445943  0.0209005 0.0000
  5    -76.9729173873  -0.140973853174 0.02607672  0.00236529  0.0028815 0.0000
                      *** Initiating the SOSCF procedure ***
                           *** Shutting down DIIS ***
                      *** Re-Reading the Fockian *** 
                      *** Removing any level shift *** 
ITER      Energy       Delta-E        Grad      Rot      Max-DP    RMS-DP
  6    -76.98331213  -0.0103947380  0.001943  0.001943  0.009654  0.001275
               *** Restarting incremental Fock matrix formation ***
  7    -76.98689132  -0.0035791978  0.001019  0.002649  0.007337  0.000773
  8    -76.98691348  -0.0000221607  0.000611  0.003834  0.009696  0.001063
  9    -76.98692498  -0.0000114948  0.000072  0.000221  0.000497  0.000053
                 **** Energy Check signals convergence ****
              ***Rediagonalizing the Fockian in SOSCF/NRSCF***

               *****************************************************
               *                     SUCCESS                       *
               *           SCF CONVERGED AFTER  10 CYCLES          *
               *****************************************************


----------------
TOTAL SCF ENERGY
----------------

Total Energy       :          -76.98692513 Eh           -2094.92074 eV

Components:
Nuclear Repulsion  :           60.68090431 Eh            1651.21135 eV
Electronic Energy  :         -137.66782944 Eh           -3746.13209 eV
One Electron Energy:         -219.94940762 Eh           -5985.12766 eV
Two Electron Energy:           82.28157818 Eh            2238.99557 eV

Virial components:
Potential Energy   :         -162.46852224 Eh           -4420.99325 eV
Kinetic Energy     :           85.48159711 Eh            2326.07251 eV
Virial Ratio       :            1.90062572


---------------
SCF CONVERGENCE
---------------

  Last Energy change         ...   -1.4645e-07  Tolerance :   1.0000e-06
  Last MAX-Density change    ...    5.2780e-04  Tolerance :   1.0000e-05
  Last RMS-Density change    ...    6.0717e-05  Tolerance :   1.0000e-06
  Last Orbital Gradient      ...    4.1946e-05  Tolerance :   5.0000e-05
  Last Orbital Rotation      ...    2.4015e-04  Tolerance :   5.0000e-05

             **** THE GBW FILE WAS UPDATED (./task4/0.72986.gbw) ****
             **** DENSITY FILE WAS UPDATED (./task4/0.72986.scfp.tmp) ****
             **** ENERGY FILE WAS UPDATED (./task4/0.72986.en.tmp) ****
----------------
ORBITAL ENERGIES
----------------

  NO   OCC          E(Eh)            E(eV) 
   0   2.0000     -11.405954      -310.3718 
   1   2.0000     -11.258518      -306.3599 
   2   2.0000      -1.284117       -34.9426 
   3   2.0000      -0.939511       -25.5654 
   4   2.0000      -0.839708       -22.8496 
   5   2.0000      -0.746780       -20.3209 
   6   2.0000      -0.604454       -16.4480 
   7   2.0000      -0.374247       -10.1838 
   8   2.0000      -0.239494        -6.5170 
   9   0.0000       0.145383         3.9561 
  10   0.0000       0.195973         5.3327 
  11   0.0000       0.216051         5.8790 
  12   0.0000       0.313165         8.5217 
  13   0.0000       0.396392        10.7864 
  14   0.0000       0.454213        12.3598 
  15   0.0000       0.509823        13.8730 
  16   0.0000       0.554646        15.0927 
  17   0.0000       0.649677        17.6786 
  18   0.0000       0.764379        20.7998 
  19   0.0000       0.911200        24.7950 
  20   0.0000       0.949893        25.8479 
  21   0.0000       1.079434        29.3729 
  22   0.0000       1.153059        31.3763 
  23   0.0000       1.245503        33.8919 
  24   0.0000       1.258501        34.2456 
  25   0.0000       1.376699        37.4619 
  26   0.0000       1.457843        39.6699 
  27   0.0000       1.634766        44.4842 
  28   0.0000       1.664841        45.3026 
  29   0.0000       4.311512       117.3222 

                    ********************************
                    * MULLIKEN POPULATION ANALYSIS *
                    ********************************

-----------------------
MULLIKEN ATOMIC CHARGES
-----------------------
   0 C :   -0.581495
   1 C :   -0.164209
   2 H :    0.140222
   3 H :    0.099994
   4 H :    0.039808
   5 H :    0.117067
   6 H :    0.177587
   7 H :    0.171026
Sum of atomic charges:   -0.0000000

--------------------------------
MULLIKEN REDUCED ORBITAL CHARGES
--------------------------------
  0 C s       :     3.455336  s :     3.455336
      pz      :     1.072470  p :     3.126158
      px      :     0.941171
      py      :     1.112518
  1 C s       :     2.961972  s :     2.961972
      pz      :     1.195365  p :     3.202237
      px      :     0.941062
      py      :     1.065810
  2 H s       :     0.859778  s :     0.859778
  3 H s       :     0.900006  s :     0.900006
  4 H s       :     0.960192  s :     0.960192
  5 H s       :     0.882933  s :     0.882933
  6 H s       :     0.822413  s :     0.822413
  7 H s       :     0.828974  s :     0.828974


                     *******************************
                     * LOEWDIN POPULATION ANALYSIS *
                     *******************************

----------------------
LOEWDIN ATOMIC CHARGES
----------------------
   0 C :   -0.280144
   1 C :   -0.349447
   2 H :    0.115094
   3 H :    0.086204
   4 H :    0.015417
   5 H :    0.134702
   6 H :    0.131003
   7 H :    0.147172

-------------------------------
LOEWDIN REDUCED ORBITAL CHARGES
-------------------------------
  0 C s       :     2.797530  s :     2.797530
      pz      :     1.072723  p :     3.482614
      px      :     1.315578
      py      :     1.094313
  1 C s       :     2.782504  s :     2.782504
      pz      :     1.227195  p :     3.566943
      px      :     1.296142
      py      :     1.043607
  2 H s       :     0.884906  s :     0.884906
  3 H s       :     0.913796  s :     0.913796
  4 H s       :     0.984583  s :     0.984583
  5 H s       :     0.865298  s :     0.865298
  6 H s       :     0.868997  s :     0.868997
  7 H s       :     0.852828  s :     0.852828


                      *****************************
                      * MAYER POPULATION ANALYSIS *
                      *****************************

  NA   - Mulliken gross atomic population
  ZA   - Total nuclear charge
  QA   - Mulliken gross atomic charge
  VA   - Mayer's total valence
  BVA  - Mayer's bonded valence
  FA   - Mayer's free valence

  ATOM       NA         ZA         QA         VA         BVA        FA
  0 C      6.5815     6.0000    -0.5815     3.5154     3.5154    -0.0000
  1 C      6.1642     6.0000    -0.1642     3.0783     3.0783     0.0000
  2 H      0.8598     1.0000     0.1402     0.9192     0.9192     0.0000
  3 H      0.9000     1.0000     0.1000     0.9109     0.9109     0.0000
  4 H      0.9602     1.0000     0.0398     0.8919     0.8919    -0.0000
  5 H      0.8829     1.0000     0.1171     0.8986     0.8986    -0.0000
  6 H      0.8224     1.0000     0.1776     0.8168     0.8168     0.0000
  7 H      0.8290     1.0000     0.1710     0.9298     0.9298     0.0000

  Mayer bond orders larger than 0.1
B(  0-C ,  1-C ) :   0.7951 B(  0-C ,  2-H ) :   0.9872 B(  0-C ,  3-H ) :   1.0613 
B(  0-C ,  4-H ) :   0.8975 B(  0-C ,  6-H ) :  -0.1344 B(  1-C ,  2-H ) :  -0.1126 
B(  1-C ,  3-H ) :  -0.1999 B(  1-C ,  5-H ) :   0.8238 B(  1-C ,  6-H ) :   0.8923 
B(  1-C ,  7-H ) :   0.9537 

-------
TIMINGS
-------

Total SCF time: 0 days 0 hours 0 min 3 sec 

Total time                  ....       3.055 sec
Sum of individual times     ....       2.984 sec  ( 97.7%)

Fock matrix formation       ....       2.731 sec  ( 89.4%)
Diagonalization             ....       0.003 sec  (  0.1%)
Density matrix formation    ....       0.000 sec  (  0.0%)
Population analysis         ....       0.001 sec  (  0.0%)
Initial guess               ....       0.184 sec  (  6.0%)
Orbital Transformation      ....       0.000 sec  (  0.0%)
Orbital Orthonormalization  ....       0.000 sec  (  0.0%)
DIIS solution               ....       0.001 sec  (  0.0%)
SOSCF solution              ....       0.003 sec  (  0.1%)

-------------------------   --------------------
FINAL SINGLE POINT ENERGY       -76.986925125052
-------------------------   --------------------


                            ***************************************
                            *     ORCA property calculations      *
                            ***************************************

                                    ---------------------
                                    Active property flags
                                    ---------------------
   (+) Dipole Moment


------------------------------------------------------------------------------
                       ORCA ELECTRIC PROPERTIES CALCULATION
------------------------------------------------------------------------------

Dipole Moment Calculation                       ... on
Quadrupole Moment Calculation                   ... off
Polarizability Calculation                      ... off
GBWName                                         ... ./task4/0.72986.gbw
Electron density file                           ... ./task4/0.72986.scfp.tmp
The origin for moment calculation is the CENTER OF MASS  = ( 0.689618, -0.032022 -0.055464)

-------------
DIPOLE MOMENT
-------------
                                X             Y             Z
Electronic contribution:      0.31942       0.34569       0.20323
Nuclear contribution   :      0.00000      -0.37886      -0.65621
                        -----------------------------------------
Total Dipole Moment    :      0.31942      -0.03317      -0.45298
                        -----------------------------------------
Magnitude (a.u.)       :      0.55527
Magnitude (Debye)      :      1.41138


Timings for individual modules:

Sum of individual times         ...        3.439 sec (=   0.057 min)
GTO integral calculation        ...        0.353 sec (=   0.006 min)  10.3 %
SCF iterations                  ...        3.086 sec (=   0.051 min)  89.7 %
                             ****ORCA TERMINATED NORMALLY****
TOTAL RUN TIME: 0 days 0 hours 0 minutes 3 seconds 629 msec
