
                                 *****************
                                 * O   R   C   A *
                                 *****************

           --- An Ab Initio, DFT and Semiempirical electronic structure package ---

                  #######################################################
                  #                        -***-                        #
                  #  Department of molecular theory and spectroscopy    #
                  #              Directorship: Frank Neese              #
                  # Max Planck Institute for Chemical Energy Conversion #
                  #                  D-45470 Muelheim/Ruhr              #
                  #                       Germany                       #
                  #                                                     #
                  #                  All rights reserved                #
                  #                        -***-                        #
                  #######################################################


                         Program Version 4.0.1.2 - RELEASE -


 With contributions from (in alphabetic order):
   Daniel Aravena         : Magnetic Properties
   Michael Atanasov       : Ab Initio Ligand Field Theory
   Ute Becker             : Parallelization
   Martin Brehm           : Molecular dynamics
   Dmytro Bykov           : SCF Hessian
   Vijay G. Chilkuri      : MRCI spin determinant printing
   Dipayan Datta          : RHF DLPNO-CCSD density
   Achintya Kumar Dutta   : EOM-CC, STEOM-CC
   Dmitry Ganyushin       : Spin-Orbit,Spin-Spin,Magnetic field MRCI
   Yang Guo               : DLPNO-NEVPT2, CIM, IAO-localization
   Andreas Hansen         : Spin unrestricted coupled pair/coupled cluster methods
   Lee Huntington         : MR-EOM, pCC
   Robert Izsak           : Overlap fitted RIJCOSX, COSX-SCS-MP3, EOM
   Christian Kollmar      : KDIIS, OOCD, Brueckner-CCSD(T), CCSD density
   Simone Kossmann        : Meta GGA functionals, TD-DFT gradient, OOMP2, MP2 Hessian
   Martin Krupicka        : AUTO-CI
   Dagmar Lenk            : GEPOL surface
   Dimitrios Liakos       : Extrapolation schemes; parallel MDCI
   Dimitrios Manganas     : ROCIS; embedding schemes
   Dimitrios Pantazis     : SARC Basis sets
   Taras Petrenko         : DFT Hessian,TD-DFT gradient, ASA, ECA, R-Raman, ABS, FL, XAS/XES, NRVS
   Peter Pinski           : DLPNO-MP2
   Christoph Reimann      : Effective Core Potentials
   Marius Retegan         : Local ZFS, SOC
   Christoph Riplinger    : Optimizer, TS searches, QM/MM, DLPNO-CCSD(T), (RO)-DLPNO pert. Triples
   Tobias Risthaus        : Range-separated hybrids, TD-DFT gradient, RPA, STAB
   Michael Roemelt        : Restricted open shell CIS
   Masaaki Saitow         : Open-shell DLPNO
   Barbara Sandhoefer     : DKH picture change effects
   Kantharuban Sivalingam : CASSCF convergence, NEVPT2, FIC-MRCI
   Georgi Stoychev        : AutoAux
   Boris Wezisla          : Elementary symmetry handling
   Frank Wennmohs         : Technical directorship


 We gratefully acknowledge several colleagues who have allowed us to
 interface, adapt or use parts of their codes:
   Stefan Grimme, W. Hujo, H. Kruse,             : VdW corrections, initial TS optimization,
                  C. Bannwarth                     DFT functionals, gCP, sTDA/sTD-DF
   Ed Valeev                                     : LibInt (2-el integral package), F12 methods
   Garnet Chan, S. Sharma, J. Yang, R. Olivares  : DMRG
   Ulf Ekstrom                                   : XCFun DFT Library
   Mihaly Kallay                                 : mrcc  (arbitrary order and MRCC methods)
   Andreas Klamt, Michael Diedenhofen            : otool_cosmo (COSMO solvation model)
   Jiri Pittner, Ondrej Demel                    : Mk-CCSD
   Frank Weinhold                                : gennbo (NPA and NBO analysis)
   Christopher J. Cramer and Donald G. Truhlar   : smd solvation model


 Your calculation uses the libint2 library for the computation of 2-el integrals
 For citations please refer to: http://libint.valeyev.net

 This ORCA versions uses:
   CBLAS   interface :  Fast vector & matrix operations
   LAPACKE interface :  Fast linear algebra routines
   SCALAPACK package :  Parallel linear algebra routines


Your calculation utilizes the basis: 6-31G
   H-He, Li-Ne : W. J. Hehre, R. Ditchfield and J.A. Pople, J. Chem. Phys. 56, 2257 (1972).
                 Note: He and Ne are unpublished basis sets taken from the Gaussian program.
                 Note: Li and B from J. D. Dill and J. A. Pople, J. Chem. Phys. 62, 2921 (1975).
   Na - Ar     : M. M. Francl, W. J. Pietro, W. J. Hehre, J. S. Binkley, M. S. Gordon, 
                 D. J. DeFrees and J. A. Pople, J. Chem. Phys. 77, 3654 (1982).
   K - Zn      : V. A. Rassolov, J. A. Pople, M. A. Ratner, and T. L. Windus, J. Chem. Phys. 109, 1223 (1998).

================================================================================
                                        WARNINGS
                       Please study these warnings very carefully!
================================================================================

Warning: TCutStore was < 0. Adjusted to Thresh (uncritical)

INFO   : the flag for use of LIBINT has been found!

================================================================================
                                       INPUT FILE
================================================================================
NAME = ./task4/0.82986.zm
|  1> !HF RHF 6-31G
|  2>     * int 0 1
|  3>     C 0 0 0 0 0 0 
|  4>     C 1 0 0 0.82986 0 0 
|  5>     H 1 2 0 1.08439 111.2 0
|  6>     H 1 2 3 1.08439 111.2 120
|  7>     H 1 2 3 1.08439 111.2 -120
|  8>     H 2 1 3 1.08439 111.2 180
|  9>     H 2 1 5 1.08439 111.2 120
| 10>     H 2 1 5 1.08439 111.2 240
| 11>     *
| 12>     
| 13> 
| 14>                          ****END OF INPUT****
================================================================================

                       ****************************
                       * Single Point Calculation *
                       ****************************

---------------------------------
CARTESIAN COORDINATES (ANGSTROEM)
---------------------------------
  C      0.000000    0.000000    0.000000
  C      0.829860    0.000000    0.000000
  H     -0.392142    1.011003    0.000000
  H     -0.392142   -0.505501   -0.875554
  H     -0.392142   -0.505501    0.875554
  H      1.222002   -1.011003    0.000000
  H      1.222002   -0.505501   -0.875554
  H      1.222002    1.011003   -0.000000

----------------------------
CARTESIAN COORDINATES (A.U.)
----------------------------
  NO LB      ZA    FRAG     MASS         X           Y           Z
   0 C     6.0000    0    12.011    0.000000    0.000000    0.000000
   1 C     6.0000    0    12.011    1.568208    0.000000    0.000000
   2 H     1.0000    0     1.008   -0.741041    1.910518    0.000000
   3 H     1.0000    0     1.008   -0.741041   -0.955259   -1.654557
   4 H     1.0000    0     1.008   -0.741041   -0.955259    1.654557
   5 H     1.0000    0     1.008    2.309249   -1.910518    0.000000
   6 H     1.0000    0     1.008    2.309249   -0.955259   -1.654557
   7 H     1.0000    0     1.008    2.309249    1.910518   -0.000000

--------------------------------
INTERNAL COORDINATES (ANGSTROEM)
--------------------------------
 C      0   0   0     0.000000000000     0.00000000     0.00000000
 C      1   0   0     0.829860000000     0.00000000     0.00000000
 H      1   2   0     1.084390000000   111.20000000     0.00000000
 H      1   2   3     1.084390000000   111.20000000   120.00000000
 H      1   2   3     1.084390000000   111.20000000  -120.00000000
 H      2   1   3     1.084390000000   111.20000000   180.00000000
 H      2   1   5     1.084390000000   111.20000000   120.00000000
 H      2   1   5     1.084390000000   111.20000000   240.00000000

---------------------------
INTERNAL COORDINATES (A.U.)
---------------------------
 C      0   0   0     0.000000000000     0.00000000     0.00000000
 C      1   0   0     1.568208129496     0.00000000     0.00000000
 H      1   2   0     2.049200122363   111.20000000     0.00000000
 H      1   2   3     2.049200122363   111.20000000   120.00000000
 H      1   2   3     2.049200122363   111.20000000  -120.00000000
 H      2   1   3     2.049200122363   111.20000000   180.00000000
 H      2   1   5     2.049200122363   111.20000000   120.00000000
 H      2   1   5     2.049200122363   111.20000000   240.00000000

---------------------
BASIS SET INFORMATION
---------------------
There are 2 groups of distinct atoms

 Group   1 Type C   : 10s4p contracted to 3s2p pattern {631/31}
 Group   2 Type H   : 4s contracted to 2s pattern {31}

Atom   0C    basis set group =>   1
Atom   1C    basis set group =>   1
Atom   2H    basis set group =>   2
Atom   3H    basis set group =>   2
Atom   4H    basis set group =>   2
Atom   5H    basis set group =>   2
Atom   6H    basis set group =>   2
Atom   7H    basis set group =>   2
------------------------------------------------------------------------------
                           ORCA GTO INTEGRAL CALCULATION
------------------------------------------------------------------------------

                         BASIS SET STATISTICS AND STARTUP INFO

 # of primitive gaussian shells          ...   52
 # of primitive gaussian functions       ...   68
 # of contracted shells                  ...   22
 # of contracted basis functions         ...   30
 Highest angular momentum                ...    1
 Maximum contraction depth               ...    6
 Integral package used                   ... LIBINT
 Integral threshhold            Thresh   ...  1.000e-10
 Primitive cut-off              TCut     ...  1.000e-11


------------------------------ INTEGRAL EVALUATION ----------------------------


 * One electron integrals 
 Pre-screening matrix                    ... done
 Shell pair data                         ... done (   0.000 sec)

-------------------------------------------------------------------------------
                                 ORCA SCF
-------------------------------------------------------------------------------

------------
SCF SETTINGS
------------
Hamiltonian:
 Ab initio Hamiltonian  Method          .... Hartree-Fock(GTOs)


General Settings:
 Integral files         IntName         .... ./task4/0.82986
 Hartree-Fock type      HFTyp           .... RHF
 Total Charge           Charge          ....    0
 Multiplicity           Mult            ....    1
 Number of Electrons    NEL             ....   18
 Basis Dimension        Dim             ....   30
 Nuclear Repulsion      ENuc            ....     56.8340923647 Eh

Convergence Acceleration:
 DIIS                   CNVDIIS         .... on
   Start iteration      DIISMaxIt       ....    12
   Startup error        DIISStart       ....  0.200000
   # of expansion vecs  DIISMaxEq       ....     5
   Bias factor          DIISBfac        ....   1.050
   Max. coefficient     DIISMaxC        ....  10.000
 Newton-Raphson         CNVNR           .... off
 SOSCF                  CNVSOSCF        .... on
   Start iteration      SOSCFMaxIt      ....   150
   Startup grad/error   SOSCFStart      ....  0.003300
 Level Shifting         CNVShift        .... on
   Level shift para.    LevelShift      ....    0.2500
   Turn off err/grad.   ShiftErr        ....    0.0010
 Zerner damping         CNVZerner       .... off
 Static damping         CNVDamp         .... on
   Fraction old density DampFac         ....    0.7000
   Max. Damping (<1)    DampMax         ....    0.9800
   Min. Damping (>=0)   DampMin         ....    0.0000
   Turn off err/grad.   DampErr         ....    0.1000
 Fernandez-Rico         CNVRico         .... off

SCF Procedure:
 Maximum # iterations   MaxIter         ....   125
 SCF integral mode      SCFMode         .... Direct
   Integral package                     .... LIBINT
 Reset frequeny         DirectResetFreq ....    20
 Integral Threshold     Thresh          ....  1.000e-10 Eh
 Primitive CutOff       TCut            ....  1.000e-11 Eh

Convergence Tolerance:
 Convergence Check Mode ConvCheckMode   .... Total+1el-Energy
 Convergence forced     ConvForced      .... 0
 Energy Change          TolE            ....  1.000e-06 Eh
 1-El. energy change                    ....  1.000e-03 Eh
 Orbital Gradient       TolG            ....  5.000e-05
 Orbital Rotation angle TolX            ....  5.000e-05
 DIIS Error             TolErr          ....  1.000e-06


Diagonalization of the overlap matrix:
Smallest eigenvalue                        ... 5.418e-04
Time for diagonalization                   ...    0.001 sec
Threshold for overlap eigenvalues          ... 1.000e-08
Number of eigenvalues below threshold      ... 0
Time for construction of square roots      ...    0.000 sec
Total time needed                          ...    0.001 sec

-------------------
DFT GRID GENERATION
-------------------

General Integration Accuracy     IntAcc      ...  4.340
Radial Grid Type                 RadialGrid  ... Gauss-Chebyshev
Angular Grid (max. acc.)         AngularGrid ... Lebedev-110
Angular grid pruning method      GridPruning ... 3 (G Style)
Weight generation scheme         WeightScheme... Becke
Basis function cutoff            BFCut       ...    1.0000e-10
Integration weight cutoff        WCut        ...    1.0000e-14
Grids for H and He will be reduced by one unit

# of grid points (after initial pruning)     ...   8076 (   0.0 sec)
# of grid points (after weights+screening)   ...   7690 (   0.0 sec)
nearest neighbour list constructed           ...    0.0 sec
Grid point re-assignment to atoms done       ...    0.0 sec
Grid point division into batches done        ...    0.0 sec
Reduced shell lists constructed in    0.0 sec

Total number of grid points                  ...     7690
Total number of batches                      ...      124
Average number of points per batch           ...       62
Average number of grid points per atom       ...      961
Average number of shells per batch           ...    20.18 (91.75%)
Average number of basis functions per batch  ...    27.82 (92.72%)
Average number of large shells per batch     ...    18.87 (93.50%)
Average number of large basis fcns per batch ...    26.34 (94.71%)
Maximum spatial batch extension              ...  21.42, 19.49, 23.60 au
Average spatial batch extension              ...   4.52,  4.28,  4.22 au

Time for grid setup =    0.059 sec

------------------------------
INITIAL GUESS: MODEL POTENTIAL
------------------------------
Loading Hartree-Fock densities                     ... done
Calculating cut-offs                               ... done
Setting up the integral package                    ... done
Initializing the effective Hamiltonian             ... done
Starting the Coulomb interaction                   ... done (   0.0 sec)
Reading the grid                                   ... done
Mapping shells                                     ... done
Starting the XC term evaluation                    ... done (   0.0 sec)
Transforming the Hamiltonian                       ... done (   0.0 sec)
Diagonalizing the Hamiltonian                      ... done (   0.0 sec)
Back transforming the eigenvectors                 ... done (   0.0 sec)
Now organizing SCF variables                       ... done
                      ------------------
                      INITIAL GUESS DONE (   0.2 sec)
                      ------------------
--------------
SCF ITERATIONS
--------------
ITER       Energy         Delta-E        Max-DP      RMS-DP      [F,P]     Damp
               ***  Starting incremental Fock matrix formation  ***
  0    -77.2726181670   0.000000000000 0.15680248  0.01814512  0.4572706 0.7000
  1    -77.4946011742  -0.221983007224 0.11575760  0.01409598  0.2852553 0.7000
                               ***Turning on DIIS***
  2    -77.6154115797  -0.120810405508 0.07006596  0.00846404  0.1575216 0.7000
  3    -78.2341380616  -0.618726481824 0.12122076  0.01384678  0.0836845 0.0000
  4    -77.7014664902   0.532671571336 0.02631039  0.00336028  0.0183072 0.0000
  5    -77.8281796541  -0.126713163909 0.01818108  0.00166391  0.0029917 0.0000
                      *** Initiating the SOSCF procedure ***
                           *** Shutting down DIIS ***
                      *** Re-Reading the Fockian *** 
                      *** Removing any level shift *** 
ITER      Energy       Delta-E        Grad      Rot      Max-DP    RMS-DP
  6    -77.83765376  -0.0094741037  0.001497  0.001497  0.008514  0.001140
               *** Restarting incremental Fock matrix formation ***
  7    -77.84001547  -0.0023617072  0.000456  0.001041  0.002332  0.000260
  8    -77.84001892  -0.0000034586  0.000265  0.001366  0.002909  0.000304
  9    -77.84002038  -0.0000014525  0.000044  0.000067  0.000247  0.000020
                 **** Energy Check signals convergence ****
              ***Rediagonalizing the Fockian in SOSCF/NRSCF***

               *****************************************************
               *                     SUCCESS                       *
               *           SCF CONVERGED AFTER  10 CYCLES          *
               *****************************************************


----------------
TOTAL SCF ENERGY
----------------

Total Energy       :          -77.84002040 Eh           -2118.13464 eV

Components:
Nuclear Repulsion  :           56.83409236 Eh            1546.53428 eV
Electronic Energy  :         -134.67411277 Eh           -3664.66892 eV
One Electron Energy:         -214.40705662 Eh           -5834.31262 eV
Two Electron Energy:           79.73294385 Eh            2169.64370 eV

Virial components:
Potential Energy   :         -161.58537785 Eh           -4396.96167 eV
Kinetic Energy     :           83.74535744 Eh            2278.82703 eV
Virial Ratio       :            1.92948460


---------------
SCF CONVERGENCE
---------------

  Last Energy change         ...   -2.8821e-08  Tolerance :   1.0000e-06
  Last MAX-Density change    ...    5.1702e-05  Tolerance :   1.0000e-05
  Last RMS-Density change    ...    7.6365e-06  Tolerance :   1.0000e-06
  Last Orbital Gradient      ...    1.8623e-05  Tolerance :   5.0000e-05
  Last Orbital Rotation      ...    2.4961e-05  Tolerance :   5.0000e-05

             **** THE GBW FILE WAS UPDATED (./task4/0.82986.gbw) ****
             **** DENSITY FILE WAS UPDATED (./task4/0.82986.scfp.tmp) ****
             **** ENERGY FILE WAS UPDATED (./task4/0.82986.en.tmp) ****
----------------
ORBITAL ENERGIES
----------------

  NO   OCC          E(Eh)            E(eV) 
   0   2.0000     -11.277576      -306.8784 
   1   2.0000     -11.214995      -305.1755 
   2   2.0000      -1.281526       -34.8721 
   3   2.0000      -0.884172       -24.0595 
   4   2.0000      -0.787396       -21.4261 
   5   2.0000      -0.732956       -19.9447 
   6   2.0000      -0.626506       -17.0481 
   7   2.0000      -0.400595       -10.9007 
   8   2.0000      -0.264590        -7.1998 
   9   0.0000       0.173813         4.7297 
  10   0.0000       0.219037         5.9603 
  11   0.0000       0.224797         6.1170 
  12   0.0000       0.312099         8.4927 
  13   0.0000       0.394474        10.7342 
  14   0.0000       0.442047        12.0287 
  15   0.0000       0.514416        13.9980 
  16   0.0000       0.544165        14.8075 
  17   0.0000       0.698035        18.9945 
  18   0.0000       0.804693        21.8968 
  19   0.0000       0.897232        24.4149 
  20   0.0000       0.966850        26.3093 
  21   0.0000       1.090296        29.6685 
  22   0.0000       1.174296        31.9542 
  23   0.0000       1.226708        33.3804 
  24   0.0000       1.260632        34.3035 
  25   0.0000       1.319104        35.8946 
  26   0.0000       1.394109        37.9356 
  27   0.0000       1.568543        42.6822 
  28   0.0000       1.678264        45.6679 
  29   0.0000       3.060874        83.2906 

                    ********************************
                    * MULLIKEN POPULATION ANALYSIS *
                    ********************************

-----------------------
MULLIKEN ATOMIC CHARGES
-----------------------
   0 C :   -0.532439
   1 C :   -0.305499
   2 H :    0.143570
   3 H :    0.115079
   4 H :    0.086064
   5 H :    0.135042
   6 H :    0.163948
   7 H :    0.194235
Sum of atomic charges:   -0.0000000

--------------------------------
MULLIKEN REDUCED ORBITAL CHARGES
--------------------------------
  0 C s       :     3.396378  s :     3.396378
      pz      :     1.086003  p :     3.136061
      px      :     0.935322
      py      :     1.114736
  1 C s       :     3.044137  s :     3.044137
      pz      :     1.222981  p :     3.261363
      px      :     0.934216
      py      :     1.104165
  2 H s       :     0.856430  s :     0.856430
  3 H s       :     0.884921  s :     0.884921
  4 H s       :     0.913936  s :     0.913936
  5 H s       :     0.864958  s :     0.864958
  6 H s       :     0.836052  s :     0.836052
  7 H s       :     0.805765  s :     0.805765


                     *******************************
                     * LOEWDIN POPULATION ANALYSIS *
                     *******************************

----------------------
LOEWDIN ATOMIC CHARGES
----------------------
   0 C :   -0.285315
   1 C :   -0.373849
   2 H :    0.111425
   3 H :    0.088724
   4 H :    0.044525
   5 H :    0.141322
   6 H :    0.125167
   7 H :    0.148001

-------------------------------
LOEWDIN REDUCED ORBITAL CHARGES
-------------------------------
  0 C s       :     2.831370  s :     2.831370
      pz      :     1.085457  p :     3.453946
      px      :     1.263276
      py      :     1.105214
  1 C s       :     2.815719  s :     2.815719
      pz      :     1.256943  p :     3.558130
      px      :     1.246269
      py      :     1.054917
  2 H s       :     0.888575  s :     0.888575
  3 H s       :     0.911276  s :     0.911276
  4 H s       :     0.955475  s :     0.955475
  5 H s       :     0.858678  s :     0.858678
  6 H s       :     0.874833  s :     0.874833
  7 H s       :     0.851999  s :     0.851999


                      *****************************
                      * MAYER POPULATION ANALYSIS *
                      *****************************

  NA   - Mulliken gross atomic population
  ZA   - Total nuclear charge
  QA   - Mulliken gross atomic charge
  VA   - Mayer's total valence
  BVA  - Mayer's bonded valence
  FA   - Mayer's free valence

  ATOM       NA         ZA         QA         VA         BVA        FA
  0 C      6.5324     6.0000    -0.5324     3.5727     3.5727     0.0000
  1 C      6.3055     6.0000    -0.3055     3.2558     3.2558    -0.0000
  2 H      0.8564     1.0000     0.1436     0.9261     0.9261    -0.0000
  3 H      0.8849     1.0000     0.1151     0.9155     0.9155    -0.0000
  4 H      0.9139     1.0000     0.0861     0.8986     0.8986    -0.0000
  5 H      0.8650     1.0000     0.1350     0.9064     0.9064    -0.0000
  6 H      0.8361     1.0000     0.1639     0.8327     0.8327     0.0000
  7 H      0.8058     1.0000     0.1942     0.9280     0.9280    -0.0000

  Mayer bond orders larger than 0.1
B(  0-C ,  1-C ) :   0.8155 B(  0-C ,  2-H ) :   0.9953 B(  0-C ,  3-H ) :   1.0298 
B(  0-C ,  4-H ) :   0.9265 B(  0-C ,  6-H ) :  -0.1057 B(  1-C ,  3-H ) :  -0.1381 
B(  1-C ,  5-H ) :   0.8712 B(  1-C ,  6-H ) :   0.9090 B(  1-C ,  7-H ) :   0.9585 


-------
TIMINGS
-------

Total SCF time: 0 days 0 hours 0 min 3 sec 

Total time                  ....       3.005 sec
Sum of individual times     ....       2.991 sec  ( 99.5%)

Fock matrix formation       ....       2.745 sec  ( 91.4%)
Diagonalization             ....       0.003 sec  (  0.1%)
Density matrix formation    ....       0.000 sec  (  0.0%)
Population analysis         ....       0.001 sec  (  0.0%)
Initial guess               ....       0.179 sec  (  5.9%)
Orbital Transformation      ....       0.000 sec  (  0.0%)
Orbital Orthonormalization  ....       0.000 sec  (  0.0%)
DIIS solution               ....       0.001 sec  (  0.0%)
SOSCF solution              ....       0.003 sec  (  0.1%)

-------------------------   --------------------
FINAL SINGLE POINT ENERGY       -77.840020404948
-------------------------   --------------------


                            ***************************************
                            *     ORCA property calculations      *
                            ***************************************

                                    ---------------------
                                    Active property flags
                                    ---------------------
   (+) Dipole Moment


------------------------------------------------------------------------------
                       ORCA ELECTRIC PROPERTIES CALCULATION
------------------------------------------------------------------------------

Dipole Moment Calculation                       ... on
Quadrupole Moment Calculation                   ... off
Polarizability Calculation                      ... off
GBWName                                         ... ./task4/0.82986.gbw
Electron density file                           ... ./task4/0.82986.scfp.tmp
The origin for moment calculation is the CENTER OF MASS  = ( 0.784104, -0.032022 -0.055464)

-------------
DIPOLE MOMENT
-------------
                                X             Y             Z
Electronic contribution:      0.24233       0.30951       0.25492
Nuclear contribution   :     -0.00000      -0.37886      -0.65621
                        -----------------------------------------
Total Dipole Moment    :      0.24233      -0.06935      -0.40129
                        -----------------------------------------
Magnitude (a.u.)       :      0.47388
Magnitude (Debye)      :      1.20452


Timings for individual modules:

Sum of individual times         ...        3.511 sec (=   0.059 min)
GTO integral calculation        ...        0.468 sec (=   0.008 min)  13.3 %
SCF iterations                  ...        3.043 sec (=   0.051 min)  86.7 %
                             ****ORCA TERMINATED NORMALLY****
TOTAL RUN TIME: 0 days 0 hours 0 minutes 3 seconds 701 msec
