
                                 *****************
                                 * O   R   C   A *
                                 *****************

           --- An Ab Initio, DFT and Semiempirical electronic structure package ---

                  #######################################################
                  #                        -***-                        #
                  #  Department of molecular theory and spectroscopy    #
                  #              Directorship: Frank Neese              #
                  # Max Planck Institute for Chemical Energy Conversion #
                  #                  D-45470 Muelheim/Ruhr              #
                  #                       Germany                       #
                  #                                                     #
                  #                  All rights reserved                #
                  #                        -***-                        #
                  #######################################################


                         Program Version 4.0.1.2 - RELEASE -


 With contributions from (in alphabetic order):
   Daniel Aravena         : Magnetic Properties
   Michael Atanasov       : Ab Initio Ligand Field Theory
   Ute Becker             : Parallelization
   Martin Brehm           : Molecular dynamics
   Dmytro Bykov           : SCF Hessian
   Vijay G. Chilkuri      : MRCI spin determinant printing
   Dipayan Datta          : RHF DLPNO-CCSD density
   Achintya Kumar Dutta   : EOM-CC, STEOM-CC
   Dmitry Ganyushin       : Spin-Orbit,Spin-Spin,Magnetic field MRCI
   Yang Guo               : DLPNO-NEVPT2, CIM, IAO-localization
   Andreas Hansen         : Spin unrestricted coupled pair/coupled cluster methods
   Lee Huntington         : MR-EOM, pCC
   Robert Izsak           : Overlap fitted RIJCOSX, COSX-SCS-MP3, EOM
   Christian Kollmar      : KDIIS, OOCD, Brueckner-CCSD(T), CCSD density
   Simone Kossmann        : Meta GGA functionals, TD-DFT gradient, OOMP2, MP2 Hessian
   Martin Krupicka        : AUTO-CI
   Dagmar Lenk            : GEPOL surface
   Dimitrios Liakos       : Extrapolation schemes; parallel MDCI
   Dimitrios Manganas     : ROCIS; embedding schemes
   Dimitrios Pantazis     : SARC Basis sets
   Taras Petrenko         : DFT Hessian,TD-DFT gradient, ASA, ECA, R-Raman, ABS, FL, XAS/XES, NRVS
   Peter Pinski           : DLPNO-MP2
   Christoph Reimann      : Effective Core Potentials
   Marius Retegan         : Local ZFS, SOC
   Christoph Riplinger    : Optimizer, TS searches, QM/MM, DLPNO-CCSD(T), (RO)-DLPNO pert. Triples
   Tobias Risthaus        : Range-separated hybrids, TD-DFT gradient, RPA, STAB
   Michael Roemelt        : Restricted open shell CIS
   Masaaki Saitow         : Open-shell DLPNO
   Barbara Sandhoefer     : DKH picture change effects
   Kantharuban Sivalingam : CASSCF convergence, NEVPT2, FIC-MRCI
   Georgi Stoychev        : AutoAux
   Boris Wezisla          : Elementary symmetry handling
   Frank Wennmohs         : Technical directorship


 We gratefully acknowledge several colleagues who have allowed us to
 interface, adapt or use parts of their codes:
   Stefan Grimme, W. Hujo, H. Kruse,             : VdW corrections, initial TS optimization,
                  C. Bannwarth                     DFT functionals, gCP, sTDA/sTD-DF
   Ed Valeev                                     : LibInt (2-el integral package), F12 methods
   Garnet Chan, S. Sharma, J. Yang, R. Olivares  : DMRG
   Ulf Ekstrom                                   : XCFun DFT Library
   Mihaly Kallay                                 : mrcc  (arbitrary order and MRCC methods)
   Andreas Klamt, Michael Diedenhofen            : otool_cosmo (COSMO solvation model)
   Jiri Pittner, Ondrej Demel                    : Mk-CCSD
   Frank Weinhold                                : gennbo (NPA and NBO analysis)
   Christopher J. Cramer and Donald G. Truhlar   : smd solvation model


 Your calculation uses the libint2 library for the computation of 2-el integrals
 For citations please refer to: http://libint.valeyev.net

 This ORCA versions uses:
   CBLAS   interface :  Fast vector & matrix operations
   LAPACKE interface :  Fast linear algebra routines
   SCALAPACK package :  Parallel linear algebra routines


Your calculation utilizes the basis: 6-31G
   H-He, Li-Ne : W. J. Hehre, R. Ditchfield and J.A. Pople, J. Chem. Phys. 56, 2257 (1972).
                 Note: He and Ne are unpublished basis sets taken from the Gaussian program.
                 Note: Li and B from J. D. Dill and J. A. Pople, J. Chem. Phys. 62, 2921 (1975).
   Na - Ar     : M. M. Francl, W. J. Pietro, W. J. Hehre, J. S. Binkley, M. S. Gordon, 
                 D. J. DeFrees and J. A. Pople, J. Chem. Phys. 77, 3654 (1982).
   K - Zn      : V. A. Rassolov, J. A. Pople, M. A. Ratner, and T. L. Windus, J. Chem. Phys. 109, 1223 (1998).

================================================================================
                                        WARNINGS
                       Please study these warnings very carefully!
================================================================================

Warning: TCutStore was < 0. Adjusted to Thresh (uncritical)

INFO   : the flag for use of LIBINT has been found!

================================================================================
                                       INPUT FILE
================================================================================
NAME = ./task4/0.92986.zm
|  1> !HF RHF 6-31G
|  2>     * int 0 1
|  3>     C 0 0 0 0 0 0 
|  4>     C 1 0 0 0.92986 0 0 
|  5>     H 1 2 0 1.08439 111.2 0
|  6>     H 1 2 3 1.08439 111.2 120
|  7>     H 1 2 3 1.08439 111.2 -120
|  8>     H 2 1 3 1.08439 111.2 180
|  9>     H 2 1 5 1.08439 111.2 120
| 10>     H 2 1 5 1.08439 111.2 240
| 11>     *
| 12>     
| 13> 
| 14>                          ****END OF INPUT****
================================================================================

                       ****************************
                       * Single Point Calculation *
                       ****************************

---------------------------------
CARTESIAN COORDINATES (ANGSTROEM)
---------------------------------
  C      0.000000    0.000000    0.000000
  C      0.929860    0.000000    0.000000
  H     -0.392142    1.011003    0.000000
  H     -0.392142   -0.505501   -0.875554
  H     -0.392142   -0.505501    0.875554
  H      1.322002   -1.011003    0.000000
  H      1.322002   -0.505501   -0.875554
  H      1.322002    1.011003   -0.000000

----------------------------
CARTESIAN COORDINATES (A.U.)
----------------------------
  NO LB      ZA    FRAG     MASS         X           Y           Z
   0 C     6.0000    0    12.011    0.000000    0.000000    0.000000
   1 C     6.0000    0    12.011    1.757181    0.000000    0.000000
   2 H     1.0000    0     1.008   -0.741041    1.910518    0.000000
   3 H     1.0000    0     1.008   -0.741041   -0.955259   -1.654557
   4 H     1.0000    0     1.008   -0.741041   -0.955259    1.654557
   5 H     1.0000    0     1.008    2.498222   -1.910518    0.000000
   6 H     1.0000    0     1.008    2.498222   -0.955259   -1.654557
   7 H     1.0000    0     1.008    2.498222    1.910518   -0.000000

--------------------------------
INTERNAL COORDINATES (ANGSTROEM)
--------------------------------
 C      0   0   0     0.000000000000     0.00000000     0.00000000
 C      1   0   0     0.929860000000     0.00000000     0.00000000
 H      1   2   0     1.084390000000   111.20000000     0.00000000
 H      1   2   3     1.084390000000   111.20000000   120.00000000
 H      1   2   3     1.084390000000   111.20000000  -120.00000000
 H      2   1   3     1.084390000000   111.20000000   180.00000000
 H      2   1   5     1.084390000000   111.20000000   120.00000000
 H      2   1   5     1.084390000000   111.20000000   240.00000000

---------------------------
INTERNAL COORDINATES (A.U.)
---------------------------
 C      0   0   0     0.000000000000     0.00000000     0.00000000
 C      1   0   0     1.757180742888     0.00000000     0.00000000
 H      1   2   0     2.049200122363   111.20000000     0.00000000
 H      1   2   3     2.049200122363   111.20000000   120.00000000
 H      1   2   3     2.049200122363   111.20000000  -120.00000000
 H      2   1   3     2.049200122363   111.20000000   180.00000000
 H      2   1   5     2.049200122363   111.20000000   120.00000000
 H      2   1   5     2.049200122363   111.20000000   240.00000000

---------------------
BASIS SET INFORMATION
---------------------
There are 2 groups of distinct atoms

 Group   1 Type C   : 10s4p contracted to 3s2p pattern {631/31}
 Group   2 Type H   : 4s contracted to 2s pattern {31}

Atom   0C    basis set group =>   1
Atom   1C    basis set group =>   1
Atom   2H    basis set group =>   2
Atom   3H    basis set group =>   2
Atom   4H    basis set group =>   2
Atom   5H    basis set group =>   2
Atom   6H    basis set group =>   2
Atom   7H    basis set group =>   2
------------------------------------------------------------------------------
                           ORCA GTO INTEGRAL CALCULATION
------------------------------------------------------------------------------

                         BASIS SET STATISTICS AND STARTUP INFO

 # of primitive gaussian shells          ...   52
 # of primitive gaussian functions       ...   68
 # of contracted shells                  ...   22
 # of contracted basis functions         ...   30
 Highest angular momentum                ...    1
 Maximum contraction depth               ...    6
 Integral package used                   ... LIBINT
 Integral threshhold            Thresh   ...  1.000e-10
 Primitive cut-off              TCut     ...  1.000e-11


------------------------------ INTEGRAL EVALUATION ----------------------------


 * One electron integrals 
 Pre-screening matrix                    ... done
 Shell pair data                         ... done (   0.000 sec)

-------------------------------------------------------------------------------
                                 ORCA SCF
-------------------------------------------------------------------------------

------------
SCF SETTINGS
------------
Hamiltonian:
 Ab initio Hamiltonian  Method          .... Hartree-Fock(GTOs)


General Settings:
 Integral files         IntName         .... ./task4/0.92986
 Hartree-Fock type      HFTyp           .... RHF
 Total Charge           Charge          ....    0
 Multiplicity           Mult            ....    1
 Number of Electrons    NEL             ....   18
 Basis Dimension        Dim             ....   30
 Nuclear Repulsion      ENuc            ....     53.7084226567 Eh

Convergence Acceleration:
 DIIS                   CNVDIIS         .... on
   Start iteration      DIISMaxIt       ....    12
   Startup error        DIISStart       ....  0.200000
   # of expansion vecs  DIISMaxEq       ....     5
   Bias factor          DIISBfac        ....   1.050
   Max. coefficient     DIISMaxC        ....  10.000
 Newton-Raphson         CNVNR           .... off
 SOSCF                  CNVSOSCF        .... on
   Start iteration      SOSCFMaxIt      ....   150
   Startup grad/error   SOSCFStart      ....  0.003300
 Level Shifting         CNVShift        .... on
   Level shift para.    LevelShift      ....    0.2500
   Turn off err/grad.   ShiftErr        ....    0.0010
 Zerner damping         CNVZerner       .... off
 Static damping         CNVDamp         .... on
   Fraction old density DampFac         ....    0.7000
   Max. Damping (<1)    DampMax         ....    0.9800
   Min. Damping (>=0)   DampMin         ....    0.0000
   Turn off err/grad.   DampErr         ....    0.1000
 Fernandez-Rico         CNVRico         .... off

SCF Procedure:
 Maximum # iterations   MaxIter         ....   125
 SCF integral mode      SCFMode         .... Direct
   Integral package                     .... LIBINT
 Reset frequeny         DirectResetFreq ....    20
 Integral Threshold     Thresh          ....  1.000e-10 Eh
 Primitive CutOff       TCut            ....  1.000e-11 Eh

Convergence Tolerance:
 Convergence Check Mode ConvCheckMode   .... Total+1el-Energy
 Convergence forced     ConvForced      .... 0
 Energy Change          TolE            ....  1.000e-06 Eh
 1-El. energy change                    ....  1.000e-03 Eh
 Orbital Gradient       TolG            ....  5.000e-05
 Orbital Rotation angle TolX            ....  5.000e-05
 DIIS Error             TolErr          ....  1.000e-06


Diagonalization of the overlap matrix:
Smallest eigenvalue                        ... 1.007e-03
Time for diagonalization                   ...    0.001 sec
Threshold for overlap eigenvalues          ... 1.000e-08
Number of eigenvalues below threshold      ... 0
Time for construction of square roots      ...    0.000 sec
Total time needed                          ...    0.001 sec

-------------------
DFT GRID GENERATION
-------------------

General Integration Accuracy     IntAcc      ...  4.340
Radial Grid Type                 RadialGrid  ... Gauss-Chebyshev
Angular Grid (max. acc.)         AngularGrid ... Lebedev-110
Angular grid pruning method      GridPruning ... 3 (G Style)
Weight generation scheme         WeightScheme... Becke
Basis function cutoff            BFCut       ...    1.0000e-10
Integration weight cutoff        WCut        ...    1.0000e-14
Grids for H and He will be reduced by one unit

# of grid points (after initial pruning)     ...   8076 (   0.0 sec)
# of grid points (after weights+screening)   ...   7699 (   0.0 sec)
nearest neighbour list constructed           ...    0.0 sec
Grid point re-assignment to atoms done       ...    0.0 sec
Grid point division into batches done        ...    0.0 sec
Reduced shell lists constructed in    0.0 sec

Total number of grid points                  ...     7699
Total number of batches                      ...      125
Average number of points per batch           ...       61
Average number of grid points per atom       ...      962
Average number of shells per batch           ...    20.10 (91.38%)
Average number of basis functions per batch  ...    27.74 (92.46%)
Average number of large shells per batch     ...    18.81 (93.56%)
Average number of large basis fcns per batch ...    26.30 (94.82%)
Maximum spatial batch extension              ...  21.33, 20.26, 23.60 au
Average spatial batch extension              ...   4.72,  4.62,  4.17 au

Time for grid setup =    0.060 sec

------------------------------
INITIAL GUESS: MODEL POTENTIAL
------------------------------
Loading Hartree-Fock densities                     ... done
Calculating cut-offs                               ... done
Setting up the integral package                    ... done
Initializing the effective Hamiltonian             ... done
Starting the Coulomb interaction                   ... done (   0.0 sec)
Reading the grid                                   ... done
Mapping shells                                     ... done
Starting the XC term evaluation                    ... done (   0.0 sec)
Transforming the Hamiltonian                       ... done (   0.0 sec)
Diagonalizing the Hamiltonian                      ... done (   0.0 sec)
Back transforming the eigenvectors                 ... done (   0.0 sec)
Now organizing SCF variables                       ... done
                      ------------------
                      INITIAL GUESS DONE (   0.2 sec)
                      ------------------
--------------
SCF ITERATIONS
--------------
ITER       Energy         Delta-E        Max-DP      RMS-DP      [F,P]     Damp
               ***  Starting incremental Fock matrix formation  ***
  0    -77.9080921958   0.000000000000 0.13776504  0.01413536  0.4090493 0.7000
  1    -78.0857844567  -0.177692260892 0.10235619  0.01104801  0.2552765 0.7000
                               ***Turning on DIIS***
  2    -78.1832770078  -0.097492551138 0.06229337  0.00667610  0.1415774 0.7000
  3    -78.7316126500  -0.548335642211 0.09880135  0.01077887  0.0755880 0.0000
  4    -78.2448411355   0.486771514491 0.01940529  0.00255847  0.0159764 0.0000
                      *** Initiating the SOSCF procedure ***
                           *** Shutting down DIIS ***
                      *** Re-Reading the Fockian *** 
                      *** Removing any level shift *** 
ITER      Energy       Delta-E        Grad      Rot      Max-DP    RMS-DP
  5    -78.35496836  -0.1101272275  0.002764  0.002764  0.012414  0.001186
               *** Restarting incremental Fock matrix formation ***
  6    -78.36411618  -0.0091478129  0.000871  0.001800  0.004256  0.000577
  7    -78.36413239  -0.0000162152  0.000450  0.001746  0.003750  0.000445
  8    -78.36413693  -0.0000045432  0.000078  0.000142  0.000489  0.000042
                 **** Energy Check signals convergence ****
              ***Rediagonalizing the Fockian in SOSCF/NRSCF***

               *****************************************************
               *                     SUCCESS                       *
               *           SCF CONVERGED AFTER   9 CYCLES          *
               *****************************************************


----------------
TOTAL SCF ENERGY
----------------

Total Energy       :          -78.36413702 Eh           -2132.39658 eV

Components:
Nuclear Repulsion  :           53.70842266 Eh            1461.48048 eV
Electronic Energy  :         -132.07255968 Eh           -3593.87706 eV
One Electron Energy:         -209.50253719 Eh           -5700.85386 eV
Two Electron Energy:           77.42997751 Eh            2106.97680 eV

Virial components:
Potential Energy   :         -160.80971122 Eh           -4375.85471 eV
Kinetic Energy     :           82.44557420 Eh            2243.45813 eV
Virial Ratio       :            1.95049538


---------------
SCF CONVERGENCE
---------------

  Last Energy change         ...   -8.4174e-08  Tolerance :   1.0000e-06
  Last MAX-Density change    ...    3.0224e-04  Tolerance :   1.0000e-05
  Last RMS-Density change    ...    2.7388e-05  Tolerance :   1.0000e-06
  Last Orbital Gradient      ...    4.3312e-05  Tolerance :   5.0000e-05
  Last Orbital Rotation      ...    7.8730e-05  Tolerance :   5.0000e-05

             **** THE GBW FILE WAS UPDATED (./task4/0.92986.gbw) ****
             **** DENSITY FILE WAS UPDATED (./task4/0.92986.scfp.tmp) ****
             **** ENERGY FILE WAS UPDATED (./task4/0.92986.en.tmp) ****
----------------
ORBITAL ENERGIES
----------------

  NO   OCC          E(Eh)            E(eV) 
   0   2.0000     -11.218984      -305.2841 
   1   2.0000     -11.191872      -304.5463 
   2   2.0000      -1.256619       -34.1943 
   3   2.0000      -0.855331       -23.2747 
   4   2.0000      -0.762636       -20.7524 
   5   2.0000      -0.697905       -18.9909 
   6   2.0000      -0.624089       -16.9823 
   7   2.0000      -0.424999       -11.5648 
   8   2.0000      -0.288510        -7.8508 
   9   0.0000       0.195212         5.3120 
  10   0.0000       0.225741         6.1427 
  11   0.0000       0.241395         6.5687 
  12   0.0000       0.309838         8.4311 
  13   0.0000       0.390874        10.6362 
  14   0.0000       0.429672        11.6920 
  15   0.0000       0.527503        14.3541 
  16   0.0000       0.533331        14.5127 
  17   0.0000       0.738915        20.1069 
  18   0.0000       0.825238        22.4559 
  19   0.0000       0.885412        24.0933 
  20   0.0000       0.997459        27.1422 
  21   0.0000       1.098641        29.8955 
  22   0.0000       1.182970        32.1902 
  23   0.0000       1.200262        32.6608 
  24   0.0000       1.256523        34.1917 
  25   0.0000       1.277642        34.7664 
  26   0.0000       1.348125        36.6843 
  27   0.0000       1.515331        41.2342 
  28   0.0000       1.682649        45.7872 
  29   0.0000       2.373732        64.5925 

                    ********************************
                    * MULLIKEN POPULATION ANALYSIS *
                    ********************************

-----------------------
MULLIKEN ATOMIC CHARGES
-----------------------
   0 C :   -0.501979
   1 C :   -0.389104
   2 H :    0.146641
   3 H :    0.124630
   4 H :    0.113827
   5 H :    0.146463
   6 H :    0.154242
   7 H :    0.205280
Sum of atomic charges:   -0.0000000

--------------------------------
MULLIKEN REDUCED ORBITAL CHARGES
--------------------------------
  0 C s       :     3.360368  s :     3.360368
      pz      :     1.094251  p :     3.141611
      px      :     0.930777
      py      :     1.116583
  1 C s       :     3.101118  s :     3.101118
      pz      :     1.239744  p :     3.287986
      px      :     0.930037
      py      :     1.118205
  2 H s       :     0.853359  s :     0.853359
  3 H s       :     0.875370  s :     0.875370
  4 H s       :     0.886173  s :     0.886173
  5 H s       :     0.853537  s :     0.853537
  6 H s       :     0.845758  s :     0.845758
  7 H s       :     0.794720  s :     0.794720


                     *******************************
                     * LOEWDIN POPULATION ANALYSIS *
                     *******************************

----------------------
LOEWDIN ATOMIC CHARGES
----------------------
   0 C :   -0.292149
   1 C :   -0.392447
   2 H :    0.110203
   3 H :    0.091156
   4 H :    0.064046
   5 H :    0.147630
   6 H :    0.124282
   7 H :    0.147280

-------------------------------
LOEWDIN REDUCED ORBITAL CHARGES
-------------------------------
  0 C s       :     2.860757  s :     2.860757
      pz      :     1.097645  p :     3.431392
      px      :     1.218896
      py      :     1.114851
  1 C s       :     2.845231  s :     2.845231
      pz      :     1.280089  p :     3.547216
      px      :     1.202726
      py      :     1.064401
  2 H s       :     0.889797  s :     0.889797
  3 H s       :     0.908844  s :     0.908844
  4 H s       :     0.935954  s :     0.935954
  5 H s       :     0.852370  s :     0.852370
  6 H s       :     0.875718  s :     0.875718
  7 H s       :     0.852720  s :     0.852720


                      *****************************
                      * MAYER POPULATION ANALYSIS *
                      *****************************

  NA   - Mulliken gross atomic population
  ZA   - Total nuclear charge
  QA   - Mulliken gross atomic charge
  VA   - Mayer's total valence
  BVA  - Mayer's bonded valence
  FA   - Mayer's free valence

  ATOM       NA         ZA         QA         VA         BVA        FA
  0 C      6.5020     6.0000    -0.5020     3.6135     3.6135    -0.0000
  1 C      6.3891     6.0000    -0.3891     3.3719     3.3719     0.0000
  2 H      0.8534     1.0000     0.1466     0.9320     0.9320    -0.0000
  3 H      0.8754     1.0000     0.1246     0.9210     0.9210     0.0000
  4 H      0.8862     1.0000     0.1138     0.9057     0.9057    -0.0000
  5 H      0.8535     1.0000     0.1465     0.9130     0.9130     0.0000
  6 H      0.8458     1.0000     0.1542     0.8474     0.8474     0.0000
  7 H      0.7947     1.0000     0.2053     0.9294     0.9294     0.0000

  Mayer bond orders larger than 0.1
B(  0-C ,  1-C ) :   0.8234 B(  0-C ,  2-H ) :   0.9970 B(  0-C ,  3-H ) :   1.0117 
B(  0-C ,  4-H ) :   0.9478 B(  1-C ,  5-H ) :   0.9023 B(  1-C ,  6-H ) :   0.9191 
B(  1-C ,  7-H ) :   0.9622 

-------
TIMINGS
-------

Total SCF time: 0 days 0 hours 0 min 2 sec 

Total time                  ....       2.805 sec
Sum of individual times     ....       2.749 sec  ( 98.0%)

Fock matrix formation       ....       2.496 sec  ( 89.0%)
Diagonalization             ....       0.003 sec  (  0.1%)
Density matrix formation    ....       0.000 sec  (  0.0%)
Population analysis         ....       0.001 sec  (  0.0%)
Initial guess               ....       0.186 sec  (  6.6%)
Orbital Transformation      ....       0.000 sec  (  0.0%)
Orbital Orthonormalization  ....       0.000 sec  (  0.0%)
DIIS solution               ....       0.001 sec  (  0.0%)
SOSCF solution              ....       0.003 sec  (  0.1%)

-------------------------   --------------------
FINAL SINGLE POINT ENERGY       -78.364137018388
-------------------------   --------------------


                            ***************************************
                            *     ORCA property calculations      *
                            ***************************************

                                    ---------------------
                                    Active property flags
                                    ---------------------
   (+) Dipole Moment


------------------------------------------------------------------------------
                       ORCA ELECTRIC PROPERTIES CALCULATION
------------------------------------------------------------------------------

Dipole Moment Calculation                       ... on
Quadrupole Moment Calculation                   ... off
Polarizability Calculation                      ... off
GBWName                                         ... ./task4/0.92986.gbw
Electron density file                           ... ./task4/0.92986.scfp.tmp
The origin for moment calculation is the CENTER OF MASS  = ( 0.878590, -0.032022 -0.055464)

-------------
DIPOLE MOMENT
-------------
                                X             Y             Z
Electronic contribution:      0.18886       0.28217       0.28603
Nuclear contribution   :     -0.00000      -0.37886      -0.65621
                        -----------------------------------------
Total Dipole Moment    :      0.18886      -0.09669      -0.37018
                        -----------------------------------------
Magnitude (a.u.)       :      0.42667
Magnitude (Debye)      :      1.08451


Timings for individual modules:

Sum of individual times         ...        3.233 sec (=   0.054 min)
GTO integral calculation        ...        0.401 sec (=   0.007 min)  12.4 %
SCF iterations                  ...        2.832 sec (=   0.047 min)  87.6 %
                             ****ORCA TERMINATED NORMALLY****
TOTAL RUN TIME: 0 days 0 hours 0 minutes 3 seconds 408 msec
