
                                 *****************
                                 * O   R   C   A *
                                 *****************

           --- An Ab Initio, DFT and Semiempirical electronic structure package ---

                  #######################################################
                  #                        -***-                        #
                  #  Department of molecular theory and spectroscopy    #
                  #              Directorship: Frank Neese              #
                  # Max Planck Institute for Chemical Energy Conversion #
                  #                  D-45470 Muelheim/Ruhr              #
                  #                       Germany                       #
                  #                                                     #
                  #                  All rights reserved                #
                  #                        -***-                        #
                  #######################################################


                         Program Version 4.0.1.2 - RELEASE -


 With contributions from (in alphabetic order):
   Daniel Aravena         : Magnetic Properties
   Michael Atanasov       : Ab Initio Ligand Field Theory
   Ute Becker             : Parallelization
   Martin Brehm           : Molecular dynamics
   Dmytro Bykov           : SCF Hessian
   Vijay G. Chilkuri      : MRCI spin determinant printing
   Dipayan Datta          : RHF DLPNO-CCSD density
   Achintya Kumar Dutta   : EOM-CC, STEOM-CC
   Dmitry Ganyushin       : Spin-Orbit,Spin-Spin,Magnetic field MRCI
   Yang Guo               : DLPNO-NEVPT2, CIM, IAO-localization
   Andreas Hansen         : Spin unrestricted coupled pair/coupled cluster methods
   Lee Huntington         : MR-EOM, pCC
   Robert Izsak           : Overlap fitted RIJCOSX, COSX-SCS-MP3, EOM
   Christian Kollmar      : KDIIS, OOCD, Brueckner-CCSD(T), CCSD density
   Simone Kossmann        : Meta GGA functionals, TD-DFT gradient, OOMP2, MP2 Hessian
   Martin Krupicka        : AUTO-CI
   Dagmar Lenk            : GEPOL surface
   Dimitrios Liakos       : Extrapolation schemes; parallel MDCI
   Dimitrios Manganas     : ROCIS; embedding schemes
   Dimitrios Pantazis     : SARC Basis sets
   Taras Petrenko         : DFT Hessian,TD-DFT gradient, ASA, ECA, R-Raman, ABS, FL, XAS/XES, NRVS
   Peter Pinski           : DLPNO-MP2
   Christoph Reimann      : Effective Core Potentials
   Marius Retegan         : Local ZFS, SOC
   Christoph Riplinger    : Optimizer, TS searches, QM/MM, DLPNO-CCSD(T), (RO)-DLPNO pert. Triples
   Tobias Risthaus        : Range-separated hybrids, TD-DFT gradient, RPA, STAB
   Michael Roemelt        : Restricted open shell CIS
   Masaaki Saitow         : Open-shell DLPNO
   Barbara Sandhoefer     : DKH picture change effects
   Kantharuban Sivalingam : CASSCF convergence, NEVPT2, FIC-MRCI
   Georgi Stoychev        : AutoAux
   Boris Wezisla          : Elementary symmetry handling
   Frank Wennmohs         : Technical directorship


 We gratefully acknowledge several colleagues who have allowed us to
 interface, adapt or use parts of their codes:
   Stefan Grimme, W. Hujo, H. Kruse,             : VdW corrections, initial TS optimization,
                  C. Bannwarth                     DFT functionals, gCP, sTDA/sTD-DF
   Ed Valeev                                     : LibInt (2-el integral package), F12 methods
   Garnet Chan, S. Sharma, J. Yang, R. Olivares  : DMRG
   Ulf Ekstrom                                   : XCFun DFT Library
   Mihaly Kallay                                 : mrcc  (arbitrary order and MRCC methods)
   Andreas Klamt, Michael Diedenhofen            : otool_cosmo (COSMO solvation model)
   Jiri Pittner, Ondrej Demel                    : Mk-CCSD
   Frank Weinhold                                : gennbo (NPA and NBO analysis)
   Christopher J. Cramer and Donald G. Truhlar   : smd solvation model


 Your calculation uses the libint2 library for the computation of 2-el integrals
 For citations please refer to: http://libint.valeyev.net

 This ORCA versions uses:
   CBLAS   interface :  Fast vector & matrix operations
   LAPACKE interface :  Fast linear algebra routines
   SCALAPACK package :  Parallel linear algebra routines


Your calculation utilizes the basis: 6-31G
   H-He, Li-Ne : W. J. Hehre, R. Ditchfield and J.A. Pople, J. Chem. Phys. 56, 2257 (1972).
                 Note: He and Ne are unpublished basis sets taken from the Gaussian program.
                 Note: Li and B from J. D. Dill and J. A. Pople, J. Chem. Phys. 62, 2921 (1975).
   Na - Ar     : M. M. Francl, W. J. Pietro, W. J. Hehre, J. S. Binkley, M. S. Gordon, 
                 D. J. DeFrees and J. A. Pople, J. Chem. Phys. 77, 3654 (1982).
   K - Zn      : V. A. Rassolov, J. A. Pople, M. A. Ratner, and T. L. Windus, J. Chem. Phys. 109, 1223 (1998).

================================================================================
                                        WARNINGS
                       Please study these warnings very carefully!
================================================================================

Warning: TCutStore was < 0. Adjusted to Thresh (uncritical)

INFO   : the flag for use of LIBINT has been found!

================================================================================
                                       INPUT FILE
================================================================================
NAME = ./task4/1.32986.zm
|  1> !HF RHF 6-31G
|  2>     * int 0 1
|  3>     C 0 0 0 0 0 0 
|  4>     C 1 0 0 1.32986 0 0 
|  5>     H 1 2 0 1.08439 111.2 0
|  6>     H 1 2 3 1.08439 111.2 120
|  7>     H 1 2 3 1.08439 111.2 -120
|  8>     H 2 1 3 1.08439 111.2 180
|  9>     H 2 1 5 1.08439 111.2 120
| 10>     H 2 1 5 1.08439 111.2 240
| 11>     *
| 12>     
| 13> 
| 14>                          ****END OF INPUT****
================================================================================

                       ****************************
                       * Single Point Calculation *
                       ****************************

---------------------------------
CARTESIAN COORDINATES (ANGSTROEM)
---------------------------------
  C      0.000000    0.000000    0.000000
  C      1.329860    0.000000    0.000000
  H     -0.392142    1.011003    0.000000
  H     -0.392142   -0.505501   -0.875554
  H     -0.392142   -0.505501    0.875554
  H      1.722002   -1.011003    0.000000
  H      1.722002   -0.505501   -0.875554
  H      1.722002    1.011003   -0.000000

----------------------------
CARTESIAN COORDINATES (A.U.)
----------------------------
  NO LB      ZA    FRAG     MASS         X           Y           Z
   0 C     6.0000    0    12.011    0.000000    0.000000    0.000000
   1 C     6.0000    0    12.011    2.513071    0.000000    0.000000
   2 H     1.0000    0     1.008   -0.741041    1.910518    0.000000
   3 H     1.0000    0     1.008   -0.741041   -0.955259   -1.654557
   4 H     1.0000    0     1.008   -0.741041   -0.955259    1.654557
   5 H     1.0000    0     1.008    3.254112   -1.910518    0.000000
   6 H     1.0000    0     1.008    3.254112   -0.955259   -1.654557
   7 H     1.0000    0     1.008    3.254112    1.910518   -0.000000

--------------------------------
INTERNAL COORDINATES (ANGSTROEM)
--------------------------------
 C      0   0   0     0.000000000000     0.00000000     0.00000000
 C      1   0   0     1.329860000000     0.00000000     0.00000000
 H      1   2   0     1.084390000000   111.20000000     0.00000000
 H      1   2   3     1.084390000000   111.20000000   120.00000000
 H      1   2   3     1.084390000000   111.20000000  -120.00000000
 H      2   1   3     1.084390000000   111.20000000   180.00000000
 H      2   1   5     1.084390000000   111.20000000   120.00000000
 H      2   1   5     1.084390000000   111.20000000   240.00000000

---------------------------
INTERNAL COORDINATES (A.U.)
---------------------------
 C      0   0   0     0.000000000000     0.00000000     0.00000000
 C      1   0   0     2.513071196457     0.00000000     0.00000000
 H      1   2   0     2.049200122363   111.20000000     0.00000000
 H      1   2   3     2.049200122363   111.20000000   120.00000000
 H      1   2   3     2.049200122363   111.20000000  -120.00000000
 H      2   1   3     2.049200122363   111.20000000   180.00000000
 H      2   1   5     2.049200122363   111.20000000   120.00000000
 H      2   1   5     2.049200122363   111.20000000   240.00000000

---------------------
BASIS SET INFORMATION
---------------------
There are 2 groups of distinct atoms

 Group   1 Type C   : 10s4p contracted to 3s2p pattern {631/31}
 Group   2 Type H   : 4s contracted to 2s pattern {31}

Atom   0C    basis set group =>   1
Atom   1C    basis set group =>   1
Atom   2H    basis set group =>   2
Atom   3H    basis set group =>   2
Atom   4H    basis set group =>   2
Atom   5H    basis set group =>   2
Atom   6H    basis set group =>   2
Atom   7H    basis set group =>   2
------------------------------------------------------------------------------
                           ORCA GTO INTEGRAL CALCULATION
------------------------------------------------------------------------------

                         BASIS SET STATISTICS AND STARTUP INFO

 # of primitive gaussian shells          ...   52
 # of primitive gaussian functions       ...   68
 # of contracted shells                  ...   22
 # of contracted basis functions         ...   30
 Highest angular momentum                ...    1
 Maximum contraction depth               ...    6
 Integral package used                   ... LIBINT
 Integral threshhold            Thresh   ...  1.000e-10
 Primitive cut-off              TCut     ...  1.000e-11


------------------------------ INTEGRAL EVALUATION ----------------------------


 * One electron integrals 
 Pre-screening matrix                    ... done
 Shell pair data                         ... done (   0.000 sec)

-------------------------------------------------------------------------------
                                 ORCA SCF
-------------------------------------------------------------------------------

------------
SCF SETTINGS
------------
Hamiltonian:
 Ab initio Hamiltonian  Method          .... Hartree-Fock(GTOs)


General Settings:
 Integral files         IntName         .... ./task4/1.32986
 Hartree-Fock type      HFTyp           .... RHF
 Total Charge           Charge          ....    0
 Multiplicity           Mult            ....    1
 Number of Electrons    NEL             ....   18
 Basis Dimension        Dim             ....   30
 Nuclear Repulsion      ENuc            ....     45.3312327421 Eh

Convergence Acceleration:
 DIIS                   CNVDIIS         .... on
   Start iteration      DIISMaxIt       ....    12
   Startup error        DIISStart       ....  0.200000
   # of expansion vecs  DIISMaxEq       ....     5
   Bias factor          DIISBfac        ....   1.050
   Max. coefficient     DIISMaxC        ....  10.000
 Newton-Raphson         CNVNR           .... off
 SOSCF                  CNVSOSCF        .... on
   Start iteration      SOSCFMaxIt      ....   150
   Startup grad/error   SOSCFStart      ....  0.003300
 Level Shifting         CNVShift        .... on
   Level shift para.    LevelShift      ....    0.2500
   Turn off err/grad.   ShiftErr        ....    0.0010
 Zerner damping         CNVZerner       .... off
 Static damping         CNVDamp         .... on
   Fraction old density DampFac         ....    0.7000
   Max. Damping (<1)    DampMax         ....    0.9800
   Min. Damping (>=0)   DampMin         ....    0.0000
   Turn off err/grad.   DampErr         ....    0.1000
 Fernandez-Rico         CNVRico         .... off

SCF Procedure:
 Maximum # iterations   MaxIter         ....   125
 SCF integral mode      SCFMode         .... Direct
   Integral package                     .... LIBINT
 Reset frequeny         DirectResetFreq ....    20
 Integral Threshold     Thresh          ....  1.000e-10 Eh
 Primitive CutOff       TCut            ....  1.000e-11 Eh

Convergence Tolerance:
 Convergence Check Mode ConvCheckMode   .... Total+1el-Energy
 Convergence forced     ConvForced      .... 0
 Energy Change          TolE            ....  1.000e-06 Eh
 1-El. energy change                    ....  1.000e-03 Eh
 Orbital Gradient       TolG            ....  5.000e-05
 Orbital Rotation angle TolX            ....  5.000e-05
 DIIS Error             TolErr          ....  1.000e-06


Diagonalization of the overlap matrix:
Smallest eigenvalue                        ... 6.037e-03
Time for diagonalization                   ...    0.001 sec
Threshold for overlap eigenvalues          ... 1.000e-08
Number of eigenvalues below threshold      ... 0
Time for construction of square roots      ...    0.000 sec
Total time needed                          ...    0.001 sec

-------------------
DFT GRID GENERATION
-------------------

General Integration Accuracy     IntAcc      ...  4.340
Radial Grid Type                 RadialGrid  ... Gauss-Chebyshev
Angular Grid (max. acc.)         AngularGrid ... Lebedev-110
Angular grid pruning method      GridPruning ... 3 (G Style)
Weight generation scheme         WeightScheme... Becke
Basis function cutoff            BFCut       ...    1.0000e-10
Integration weight cutoff        WCut        ...    1.0000e-14
Grids for H and He will be reduced by one unit

# of grid points (after initial pruning)     ...   8076 (   0.0 sec)
# of grid points (after weights+screening)   ...   7738 (   0.0 sec)
nearest neighbour list constructed           ...    0.0 sec
Grid point re-assignment to atoms done       ...    0.0 sec
Grid point division into batches done        ...    0.0 sec
Reduced shell lists constructed in    0.0 sec

Total number of grid points                  ...     7738
Total number of batches                      ...      125
Average number of points per batch           ...       61
Average number of grid points per atom       ...      967
Average number of shells per batch           ...    19.83 (90.12%)
Average number of basis functions per batch  ...    27.38 (91.27%)
Average number of large shells per batch     ...    18.09 (91.23%)
Average number of large basis fcns per batch ...    25.48 (93.07%)
Maximum spatial batch extension              ...  20.94, 19.49, 23.60 au
Average spatial batch extension              ...   4.59,  4.16,  4.34 au

Time for grid setup =    0.059 sec

------------------------------
INITIAL GUESS: MODEL POTENTIAL
------------------------------
Loading Hartree-Fock densities                     ... done
Calculating cut-offs                               ... done
Setting up the integral package                    ... done
Initializing the effective Hamiltonian             ... done
Starting the Coulomb interaction                   ... done (   0.0 sec)
Reading the grid                                   ... done
Mapping shells                                     ... done
Starting the XC term evaluation                    ... done (   0.0 sec)
Transforming the Hamiltonian                       ... done (   0.0 sec)
Diagonalizing the Hamiltonian                      ... done (   0.0 sec)
Back transforming the eigenvectors                 ... done (   0.0 sec)
Now organizing SCF variables                       ... done
                      ------------------
                      INITIAL GUESS DONE (   0.2 sec)
                      ------------------
--------------
SCF ITERATIONS
--------------
ITER       Energy         Delta-E        Max-DP      RMS-DP      [F,P]     Damp
               ***  Starting incremental Fock matrix formation  ***
  0    -78.8353675260   0.000000000000 0.08453633  0.00781829  0.2615772 0.7000
  1    -78.9148991087  -0.079531582706 0.06438833  0.00626480  0.1659267 0.7000
                               ***Turning on DIIS***
  2    -78.9603609163  -0.045461807640 0.13382430  0.01314673  0.0945169 0.0000
  3    -78.7072312506   0.253129665723 0.03087510  0.00374213  0.0468822 0.0000
  4    -79.0065887262  -0.299357475629 0.00656924  0.00081921  0.0062202 0.0000
                      *** Initiating the SOSCF procedure ***
                           *** Shutting down DIIS ***
                      *** Re-Reading the Fockian *** 
                      *** Removing any level shift *** 
ITER      Energy       Delta-E        Grad      Rot      Max-DP    RMS-DP
  5    -79.04080805  -0.0342193285  0.001637  0.001637  0.002621  0.000336
               *** Restarting incremental Fock matrix formation ***
  6    -79.04596261  -0.0051545593  0.000416  0.000678  0.000952  0.000148
  7    -79.04596510  -0.0000024878  0.000191  0.000542  0.000885  0.000100
  8    -79.04596557  -0.0000004722  0.000028  0.000025  0.000078  0.000009
                 **** Energy Check signals convergence ****
              ***Rediagonalizing the Fockian in SOSCF/NRSCF***

               *****************************************************
               *                     SUCCESS                       *
               *           SCF CONVERGED AFTER   9 CYCLES          *
               *****************************************************


----------------
TOTAL SCF ENERGY
----------------

Total Energy       :          -79.04596559 Eh           -2150.95008 eV

Components:
Nuclear Repulsion  :           45.33123274 Eh            1233.52555 eV
Electronic Energy  :         -124.37719833 Eh           -3384.47563 eV
One Electron Energy:         -194.70621246 Eh           -5298.22540 eV
Two Electron Energy:           70.32901413 Eh            1913.74977 eV

Virial components:
Potential Energy   :         -158.90663153 Eh           -4324.06928 eV
Kinetic Energy     :           79.86066594 Eh            2173.11920 eV
Virial Ratio       :            1.98979848


---------------
SCF CONVERGENCE
---------------

  Last Energy change         ...   -1.6502e-08  Tolerance :   1.0000e-06
  Last MAX-Density change    ...    2.2912e-05  Tolerance :   1.0000e-05
  Last RMS-Density change    ...    3.3174e-06  Tolerance :   1.0000e-06
  Last Orbital Gradient      ...    1.7302e-05  Tolerance :   5.0000e-05
  Last Orbital Rotation      ...    1.2119e-05  Tolerance :   5.0000e-05

             **** THE GBW FILE WAS UPDATED (./task4/1.32986.gbw) ****
             **** DENSITY FILE WAS UPDATED (./task4/1.32986.scfp.tmp) ****
             **** ENERGY FILE WAS UPDATED (./task4/1.32986.en.tmp) ****
----------------
ORBITAL ENERGIES
----------------

  NO   OCC          E(Eh)            E(eV) 
   0   2.0000     -11.195044      -304.6326 
   1   2.0000     -11.192397      -304.5606 
   2   2.0000      -1.096250       -29.8305 
   3   2.0000      -0.864195       -23.5159 
   4   2.0000      -0.680086       -18.5061 
   5   2.0000      -0.589796       -16.0492 
   6   2.0000      -0.558374       -15.1941 
   7   2.0000      -0.491801       -13.3826 
   8   2.0000      -0.356041        -9.6884 
   9   0.0000       0.226144         6.1537 
  10   0.0000       0.246268         6.7013 
  11   0.0000       0.287580         7.8255 
  12   0.0000       0.299139         8.1400 
  13   0.0000       0.371858        10.1188 
  14   0.0000       0.388004        10.5581 
  15   0.0000       0.464267        12.6333 
  16   0.0000       0.649315        17.6688 
  17   0.0000       0.789751        21.4902 
  18   0.0000       0.809560        22.0292 
  19   0.0000       0.863464        23.4960 
  20   0.0000       1.049036        28.5457 
  21   0.0000       1.123859        30.5818 
  22   0.0000       1.141822        31.0706 
  23   0.0000       1.168643        31.8004 
  24   0.0000       1.196718        32.5643 
  25   0.0000       1.232373        33.5346 
  26   0.0000       1.258432        34.2437 
  27   0.0000       1.275221        34.7005 
  28   0.0000       1.390825        37.8463 
  29   0.0000       1.676378        45.6166 

                    ********************************
                    * MULLIKEN POPULATION ANALYSIS *
                    ********************************

-----------------------
MULLIKEN ATOMIC CHARGES
-----------------------
   0 C :   -0.455505
   1 C :   -0.482795
   2 H :    0.152142
   3 H :    0.141193
   4 H :    0.151093
   5 H :    0.157973
   6 H :    0.130284
   7 H :    0.205615
Sum of atomic charges:    0.0000000

--------------------------------
MULLIKEN REDUCED ORBITAL CHARGES
--------------------------------
  0 C s       :     3.331355  s :     3.331355
      pz      :     1.087994  p :     3.124149
      px      :     0.932204
      py      :     1.103951
  1 C s       :     3.232547  s :     3.232547
      pz      :     1.251851  p :     3.250247
      px      :     0.935349
      py      :     1.063048
  2 H s       :     0.847858  s :     0.847858
  3 H s       :     0.858807  s :     0.858807
  4 H s       :     0.848907  s :     0.848907
  5 H s       :     0.842027  s :     0.842027
  6 H s       :     0.869716  s :     0.869716
  7 H s       :     0.794385  s :     0.794385


                     *******************************
                     * LOEWDIN POPULATION ANALYSIS *
                     *******************************

----------------------
LOEWDIN ATOMIC CHARGES
----------------------
   0 C :   -0.309212
   1 C :   -0.430268
   2 H :    0.108836
   3 H :    0.098066
   4 H :    0.097183
   5 H :    0.163427
   6 H :    0.128193
   7 H :    0.143776

-------------------------------
LOEWDIN REDUCED ORBITAL CHARGES
-------------------------------
  0 C s       :     2.945055  s :     2.945055
      pz      :     1.126717  p :     3.364156
      px      :     1.103149
      py      :     1.134290
  1 C s       :     2.932994  s :     2.932994
      pz      :     1.328411  p :     3.497274
      px      :     1.090315
      py      :     1.078548
  2 H s       :     0.891164  s :     0.891164
  3 H s       :     0.901934  s :     0.901934
  4 H s       :     0.902817  s :     0.902817
  5 H s       :     0.836573  s :     0.836573
  6 H s       :     0.871807  s :     0.871807
  7 H s       :     0.856224  s :     0.856224


                      *****************************
                      * MAYER POPULATION ANALYSIS *
                      *****************************

  NA   - Mulliken gross atomic population
  ZA   - Total nuclear charge
  QA   - Mulliken gross atomic charge
  VA   - Mayer's total valence
  BVA  - Mayer's bonded valence
  FA   - Mayer's free valence

  ATOM       NA         ZA         QA         VA         BVA        FA
  0 C      6.4555     6.0000    -0.4555     3.7373     3.7373     0.0000
  1 C      6.4828     6.0000    -0.4828     3.6160     3.6160    -0.0000
  2 H      0.8479     1.0000     0.1521     0.9381     0.9381     0.0000
  3 H      0.8588     1.0000     0.1412     0.9306     0.9306    -0.0000
  4 H      0.8489     1.0000     0.1511     0.9236     0.9236    -0.0000
  5 H      0.8420     1.0000     0.1580     0.9224     0.9224     0.0000
  6 H      0.8697     1.0000     0.1303     0.8781     0.8781     0.0000
  7 H      0.7944     1.0000     0.2056     0.9366     0.9366     0.0000

  Mayer bond orders larger than 0.1
B(  0-C ,  1-C ) :   0.8878 B(  0-C ,  2-H ) :   0.9793 B(  0-C ,  3-H ) :   0.9765 
B(  0-C ,  4-H ) :   0.9665 B(  1-C ,  5-H ) :   0.9359 B(  1-C ,  6-H ) :   0.9143 
B(  1-C ,  7-H ) :   0.9657 

-------
TIMINGS
-------

Total SCF time: 0 days 0 hours 0 min 2 sec 

Total time                  ....       2.891 sec
Sum of individual times     ....       2.870 sec  ( 99.3%)

Fock matrix formation       ....       2.404 sec  ( 83.2%)
Diagonalization             ....       0.003 sec  (  0.1%)
Density matrix formation    ....       0.000 sec  (  0.0%)
Population analysis         ....       0.001 sec  (  0.0%)
Initial guess               ....       0.186 sec  (  6.4%)
Orbital Transformation      ....       0.000 sec  (  0.0%)
Orbital Orthonormalization  ....       0.000 sec  (  0.0%)
DIIS solution               ....       0.214 sec  (  7.4%)
SOSCF solution              ....       0.003 sec  (  0.1%)

-------------------------   --------------------
FINAL SINGLE POINT ENERGY       -79.045965590542
-------------------------   --------------------


                            ***************************************
                            *     ORCA property calculations      *
                            ***************************************

                                    ---------------------
                                    Active property flags
                                    ---------------------
   (+) Dipole Moment


------------------------------------------------------------------------------
                       ORCA ELECTRIC PROPERTIES CALCULATION
------------------------------------------------------------------------------

Dipole Moment Calculation                       ... on
Quadrupole Moment Calculation                   ... off
Polarizability Calculation                      ... off
GBWName                                         ... ./task4/1.32986.gbw
Electron density file                           ... ./task4/1.32986.scfp.tmp
The origin for moment calculation is the CENTER OF MASS  = ( 1.256536, -0.032022 -0.055464)

-------------
DIPOLE MOMENT
-------------
                                X             Y             Z
Electronic contribution:      0.09153       0.24194       0.33842
Nuclear contribution   :     -0.00000      -0.37886      -0.65621
                        -----------------------------------------
Total Dipole Moment    :      0.09153      -0.13692      -0.31780
                        -----------------------------------------
Magnitude (a.u.)       :      0.35794
Magnitude (Debye)      :      0.90980


Timings for individual modules:

Sum of individual times         ...        3.271 sec (=   0.055 min)
GTO integral calculation        ...        0.358 sec (=   0.006 min)  10.9 %
SCF iterations                  ...        2.913 sec (=   0.049 min)  89.1 %
                             ****ORCA TERMINATED NORMALLY****
TOTAL RUN TIME: 0 days 0 hours 0 minutes 3 seconds 440 msec
