
                                 *****************
                                 * O   R   C   A *
                                 *****************

           --- An Ab Initio, DFT and Semiempirical electronic structure package ---

                  #######################################################
                  #                        -***-                        #
                  #  Department of molecular theory and spectroscopy    #
                  #              Directorship: Frank Neese              #
                  # Max Planck Institute for Chemical Energy Conversion #
                  #                  D-45470 Muelheim/Ruhr              #
                  #                       Germany                       #
                  #                                                     #
                  #                  All rights reserved                #
                  #                        -***-                        #
                  #######################################################


                         Program Version 4.0.1.2 - RELEASE -


 With contributions from (in alphabetic order):
   Daniel Aravena         : Magnetic Properties
   Michael Atanasov       : Ab Initio Ligand Field Theory
   Ute Becker             : Parallelization
   Martin Brehm           : Molecular dynamics
   Dmytro Bykov           : SCF Hessian
   Vijay G. Chilkuri      : MRCI spin determinant printing
   Dipayan Datta          : RHF DLPNO-CCSD density
   Achintya Kumar Dutta   : EOM-CC, STEOM-CC
   Dmitry Ganyushin       : Spin-Orbit,Spin-Spin,Magnetic field MRCI
   Yang Guo               : DLPNO-NEVPT2, CIM, IAO-localization
   Andreas Hansen         : Spin unrestricted coupled pair/coupled cluster methods
   Lee Huntington         : MR-EOM, pCC
   Robert Izsak           : Overlap fitted RIJCOSX, COSX-SCS-MP3, EOM
   Christian Kollmar      : KDIIS, OOCD, Brueckner-CCSD(T), CCSD density
   Simone Kossmann        : Meta GGA functionals, TD-DFT gradient, OOMP2, MP2 Hessian
   Martin Krupicka        : AUTO-CI
   Dagmar Lenk            : GEPOL surface
   Dimitrios Liakos       : Extrapolation schemes; parallel MDCI
   Dimitrios Manganas     : ROCIS; embedding schemes
   Dimitrios Pantazis     : SARC Basis sets
   Taras Petrenko         : DFT Hessian,TD-DFT gradient, ASA, ECA, R-Raman, ABS, FL, XAS/XES, NRVS
   Peter Pinski           : DLPNO-MP2
   Christoph Reimann      : Effective Core Potentials
   Marius Retegan         : Local ZFS, SOC
   Christoph Riplinger    : Optimizer, TS searches, QM/MM, DLPNO-CCSD(T), (RO)-DLPNO pert. Triples
   Tobias Risthaus        : Range-separated hybrids, TD-DFT gradient, RPA, STAB
   Michael Roemelt        : Restricted open shell CIS
   Masaaki Saitow         : Open-shell DLPNO
   Barbara Sandhoefer     : DKH picture change effects
   Kantharuban Sivalingam : CASSCF convergence, NEVPT2, FIC-MRCI
   Georgi Stoychev        : AutoAux
   Boris Wezisla          : Elementary symmetry handling
   Frank Wennmohs         : Technical directorship


 We gratefully acknowledge several colleagues who have allowed us to
 interface, adapt or use parts of their codes:
   Stefan Grimme, W. Hujo, H. Kruse,             : VdW corrections, initial TS optimization,
                  C. Bannwarth                     DFT functionals, gCP, sTDA/sTD-DF
   Ed Valeev                                     : LibInt (2-el integral package), F12 methods
   Garnet Chan, S. Sharma, J. Yang, R. Olivares  : DMRG
   Ulf Ekstrom                                   : XCFun DFT Library
   Mihaly Kallay                                 : mrcc  (arbitrary order and MRCC methods)
   Andreas Klamt, Michael Diedenhofen            : otool_cosmo (COSMO solvation model)
   Jiri Pittner, Ondrej Demel                    : Mk-CCSD
   Frank Weinhold                                : gennbo (NPA and NBO analysis)
   Christopher J. Cramer and Donald G. Truhlar   : smd solvation model


 Your calculation uses the libint2 library for the computation of 2-el integrals
 For citations please refer to: http://libint.valeyev.net

 This ORCA versions uses:
   CBLAS   interface :  Fast vector & matrix operations
   LAPACKE interface :  Fast linear algebra routines
   SCALAPACK package :  Parallel linear algebra routines


Your calculation utilizes the basis: 6-31G
   H-He, Li-Ne : W. J. Hehre, R. Ditchfield and J.A. Pople, J. Chem. Phys. 56, 2257 (1972).
                 Note: He and Ne are unpublished basis sets taken from the Gaussian program.
                 Note: Li and B from J. D. Dill and J. A. Pople, J. Chem. Phys. 62, 2921 (1975).
   Na - Ar     : M. M. Francl, W. J. Pietro, W. J. Hehre, J. S. Binkley, M. S. Gordon, 
                 D. J. DeFrees and J. A. Pople, J. Chem. Phys. 77, 3654 (1982).
   K - Zn      : V. A. Rassolov, J. A. Pople, M. A. Ratner, and T. L. Windus, J. Chem. Phys. 109, 1223 (1998).

================================================================================
                                        WARNINGS
                       Please study these warnings very carefully!
================================================================================

Warning: TCutStore was < 0. Adjusted to Thresh (uncritical)

INFO   : the flag for use of LIBINT has been found!

================================================================================
                                       INPUT FILE
================================================================================
NAME = ./task4/1.52986.zm
|  1> !HF RHF 6-31G
|  2>     * int 0 1
|  3>     C 0 0 0 0 0 0 
|  4>     C 1 0 0 1.52986 0 0 
|  5>     H 1 2 0 1.08439 111.2 0
|  6>     H 1 2 3 1.08439 111.2 120
|  7>     H 1 2 3 1.08439 111.2 -120
|  8>     H 2 1 3 1.08439 111.2 180
|  9>     H 2 1 5 1.08439 111.2 120
| 10>     H 2 1 5 1.08439 111.2 240
| 11>     *
| 12>     
| 13> 
| 14>                          ****END OF INPUT****
================================================================================

                       ****************************
                       * Single Point Calculation *
                       ****************************

---------------------------------
CARTESIAN COORDINATES (ANGSTROEM)
---------------------------------
  C      0.000000    0.000000    0.000000
  C      1.529860    0.000000    0.000000
  H     -0.392142    1.011003    0.000000
  H     -0.392142   -0.505501   -0.875554
  H     -0.392142   -0.505501    0.875554
  H      1.922002   -1.011003    0.000000
  H      1.922002   -0.505501   -0.875554
  H      1.922002    1.011003   -0.000000

----------------------------
CARTESIAN COORDINATES (A.U.)
----------------------------
  NO LB      ZA    FRAG     MASS         X           Y           Z
   0 C     6.0000    0    12.011    0.000000    0.000000    0.000000
   1 C     6.0000    0    12.011    2.891016    0.000000    0.000000
   2 H     1.0000    0     1.008   -0.741041    1.910518    0.000000
   3 H     1.0000    0     1.008   -0.741041   -0.955259   -1.654557
   4 H     1.0000    0     1.008   -0.741041   -0.955259    1.654557
   5 H     1.0000    0     1.008    3.632058   -1.910518    0.000000
   6 H     1.0000    0     1.008    3.632058   -0.955259   -1.654557
   7 H     1.0000    0     1.008    3.632058    1.910518   -0.000000

--------------------------------
INTERNAL COORDINATES (ANGSTROEM)
--------------------------------
 C      0   0   0     0.000000000000     0.00000000     0.00000000
 C      1   0   0     1.529860000000     0.00000000     0.00000000
 H      1   2   0     1.084390000000   111.20000000     0.00000000
 H      1   2   3     1.084390000000   111.20000000   120.00000000
 H      1   2   3     1.084390000000   111.20000000  -120.00000000
 H      2   1   3     1.084390000000   111.20000000   180.00000000
 H      2   1   5     1.084390000000   111.20000000   120.00000000
 H      2   1   5     1.084390000000   111.20000000   240.00000000

---------------------------
INTERNAL COORDINATES (A.U.)
---------------------------
 C      0   0   0     0.000000000000     0.00000000     0.00000000
 C      1   0   0     2.891016423241     0.00000000     0.00000000
 H      1   2   0     2.049200122363   111.20000000     0.00000000
 H      1   2   3     2.049200122363   111.20000000   120.00000000
 H      1   2   3     2.049200122363   111.20000000  -120.00000000
 H      2   1   3     2.049200122363   111.20000000   180.00000000
 H      2   1   5     2.049200122363   111.20000000   120.00000000
 H      2   1   5     2.049200122363   111.20000000   240.00000000

---------------------
BASIS SET INFORMATION
---------------------
There are 2 groups of distinct atoms

 Group   1 Type C   : 10s4p contracted to 3s2p pattern {631/31}
 Group   2 Type H   : 4s contracted to 2s pattern {31}

Atom   0C    basis set group =>   1
Atom   1C    basis set group =>   1
Atom   2H    basis set group =>   2
Atom   3H    basis set group =>   2
Atom   4H    basis set group =>   2
Atom   5H    basis set group =>   2
Atom   6H    basis set group =>   2
Atom   7H    basis set group =>   2
------------------------------------------------------------------------------
                           ORCA GTO INTEGRAL CALCULATION
------------------------------------------------------------------------------

                         BASIS SET STATISTICS AND STARTUP INFO

 # of primitive gaussian shells          ...   52
 # of primitive gaussian functions       ...   68
 # of contracted shells                  ...   22
 # of contracted basis functions         ...   30
 Highest angular momentum                ...    1
 Maximum contraction depth               ...    6
 Integral package used                   ... LIBINT
 Integral threshhold            Thresh   ...  1.000e-10
 Primitive cut-off              TCut     ...  1.000e-11


------------------------------ INTEGRAL EVALUATION ----------------------------


 * One electron integrals 
 Pre-screening matrix                    ... done
 Shell pair data                         ... done (   0.000 sec)

-------------------------------------------------------------------------------
                                 ORCA SCF
-------------------------------------------------------------------------------

------------
SCF SETTINGS
------------
Hamiltonian:
 Ab initio Hamiltonian  Method          .... Hartree-Fock(GTOs)


General Settings:
 Integral files         IntName         .... ./task4/1.52986
 Hartree-Fock type      HFTyp           .... RHF
 Total Charge           Charge          ....    0
 Multiplicity           Mult            ....    1
 Number of Electrons    NEL             ....   18
 Basis Dimension        Dim             ....   30
 Nuclear Repulsion      ENuc            ....     42.5642980035 Eh

Convergence Acceleration:
 DIIS                   CNVDIIS         .... on
   Start iteration      DIISMaxIt       ....    12
   Startup error        DIISStart       ....  0.200000
   # of expansion vecs  DIISMaxEq       ....     5
   Bias factor          DIISBfac        ....   1.050
   Max. coefficient     DIISMaxC        ....  10.000
 Newton-Raphson         CNVNR           .... off
 SOSCF                  CNVSOSCF        .... on
   Start iteration      SOSCFMaxIt      ....   150
   Startup grad/error   SOSCFStart      ....  0.003300
 Level Shifting         CNVShift        .... on
   Level shift para.    LevelShift      ....    0.2500
   Turn off err/grad.   ShiftErr        ....    0.0010
 Zerner damping         CNVZerner       .... off
 Static damping         CNVDamp         .... on
   Fraction old density DampFac         ....    0.7000
   Max. Damping (<1)    DampMax         ....    0.9800
   Min. Damping (>=0)   DampMin         ....    0.0000
   Turn off err/grad.   DampErr         ....    0.1000
 Fernandez-Rico         CNVRico         .... off

SCF Procedure:
 Maximum # iterations   MaxIter         ....   125
 SCF integral mode      SCFMode         .... Direct
   Integral package                     .... LIBINT
 Reset frequeny         DirectResetFreq ....    20
 Integral Threshold     Thresh          ....  1.000e-10 Eh
 Primitive CutOff       TCut            ....  1.000e-11 Eh

Convergence Tolerance:
 Convergence Check Mode ConvCheckMode   .... Total+1el-Energy
 Convergence forced     ConvForced      .... 0
 Energy Change          TolE            ....  1.000e-06 Eh
 1-El. energy change                    ....  1.000e-03 Eh
 Orbital Gradient       TolG            ....  5.000e-05
 Orbital Rotation angle TolX            ....  5.000e-05
 DIIS Error             TolErr          ....  1.000e-06


Diagonalization of the overlap matrix:
Smallest eigenvalue                        ... 1.047e-02
Time for diagonalization                   ...    0.001 sec
Threshold for overlap eigenvalues          ... 1.000e-08
Number of eigenvalues below threshold      ... 0
Time for construction of square roots      ...    0.000 sec
Total time needed                          ...    0.001 sec

-------------------
DFT GRID GENERATION
-------------------

General Integration Accuracy     IntAcc      ...  4.340
Radial Grid Type                 RadialGrid  ... Gauss-Chebyshev
Angular Grid (max. acc.)         AngularGrid ... Lebedev-110
Angular grid pruning method      GridPruning ... 3 (G Style)
Weight generation scheme         WeightScheme... Becke
Basis function cutoff            BFCut       ...    1.0000e-10
Integration weight cutoff        WCut        ...    1.0000e-14
Grids for H and He will be reduced by one unit

# of grid points (after initial pruning)     ...   8076 (   0.0 sec)
# of grid points (after weights+screening)   ...   7763 (   0.0 sec)
nearest neighbour list constructed           ...    0.0 sec
Grid point re-assignment to atoms done       ...    0.0 sec
Grid point division into batches done        ...    0.0 sec
Reduced shell lists constructed in    0.1 sec

Total number of grid points                  ...     7763
Total number of batches                      ...      124
Average number of points per batch           ...       62
Average number of grid points per atom       ...      970
Average number of shells per batch           ...    19.75 (89.78%)
Average number of basis functions per batch  ...    27.32 (91.07%)
Average number of large shells per batch     ...    17.74 (89.79%)
Average number of large basis fcns per batch ...    25.11 (91.92%)
Maximum spatial batch extension              ...  20.73, 20.26, 22.59 au
Average spatial batch extension              ...   4.72,  4.28,  4.48 au

Time for grid setup =    0.065 sec

------------------------------
INITIAL GUESS: MODEL POTENTIAL
------------------------------
Loading Hartree-Fock densities                     ... done
Calculating cut-offs                               ... done
Setting up the integral package                    ... done
Initializing the effective Hamiltonian             ... done
Starting the Coulomb interaction                   ... done (   0.0 sec)
Reading the grid                                   ... done
Mapping shells                                     ... done
Starting the XC term evaluation                    ... done (   0.0 sec)
Transforming the Hamiltonian                       ... done (   0.0 sec)
Diagonalizing the Hamiltonian                      ... done (   0.0 sec)
Back transforming the eigenvectors                 ... done (   0.0 sec)
Now organizing SCF variables                       ... done
                      ------------------
                      INITIAL GUESS DONE (   0.3 sec)
                      ------------------
--------------
SCF ITERATIONS
--------------
ITER       Energy         Delta-E        Max-DP      RMS-DP      [F,P]     Damp
               ***  Starting incremental Fock matrix formation  ***
  0    -78.9181343894   0.000000000000 0.07211272  0.00668239  0.2250482 0.7000
  1    -78.9789790149  -0.060844625495 0.05546980  0.00541663  0.1440264 0.7000
                               ***Turning on DIIS***
  2    -79.0143857213  -0.035406706394 0.11650163  0.01158696  0.0841766 0.0000
  3    -78.8102042059   0.204181515320 0.02579372  0.00304357  0.0392131 0.0000
  4    -79.0485238841  -0.238319678126 0.00363087  0.00059164  0.0050640 0.0000
                      *** Initiating the SOSCF procedure ***
                           *** Shutting down DIIS ***
                      *** Re-Reading the Fockian *** 
                      *** Removing any level shift *** 
ITER      Energy       Delta-E        Grad      Rot      Max-DP    RMS-DP
  5    -79.07647434  -0.0279504550  0.001024  0.001024  0.001392  0.000246
               *** Restarting incremental Fock matrix formation ***
  6    -79.08152920  -0.0050548580  0.000335  0.000529  0.000784  0.000119
  7    -79.08153107  -0.0000018736  0.000157  0.000424  0.000723  0.000081
                 **** Energy Check signals convergence ****
              ***Rediagonalizing the Fockian in SOSCF/NRSCF***

               *****************************************************
               *                     SUCCESS                       *
               *           SCF CONVERGED AFTER   8 CYCLES          *
               *****************************************************


----------------
TOTAL SCF ENERGY
----------------

Total Energy       :          -79.08153142 Eh           -2151.91787 eV

Components:
Nuclear Repulsion  :           42.56429800 Eh            1158.23343 eV
Electronic Energy  :         -121.64582942 Eh           -3310.15130 eV
One Electron Energy:         -189.36609168 Eh           -5152.91332 eV
Two Electron Energy:           67.72026226 Eh            1842.76202 eV

Virial components:
Potential Energy   :         -158.42806676 Eh           -4311.04687 eV
Kinetic Energy     :           79.34653535 Eh            2159.12899 eV
Virial Ratio       :            1.99666017


---------------
SCF CONVERGENCE
---------------

  Last Energy change         ...   -3.4739e-07  Tolerance :   1.0000e-06
  Last MAX-Density change    ...    7.2034e-05  Tolerance :   1.0000e-05
  Last RMS-Density change    ...    7.8357e-06  Tolerance :   1.0000e-06
  Last Orbital Gradient      ...    2.1087e-05  Tolerance :   5.0000e-05
  Last Orbital Rotation      ...    2.3135e-05  Tolerance :   5.0000e-05

             **** THE GBW FILE WAS UPDATED (./task4/1.52986.gbw) ****
             **** DENSITY FILE WAS UPDATED (./task4/1.52986.scfp.tmp) ****
             **** ENERGY FILE WAS UPDATED (./task4/1.52986.en.tmp) ****
----------------
ORBITAL ENERGIES
----------------

  NO   OCC          E(Eh)            E(eV) 
   0   2.0000     -11.211032      -305.0677 
   1   2.0000     -11.209915      -305.0373 
   2   2.0000      -1.040735       -28.3198 
   3   2.0000      -0.879244       -23.9254 
   4   2.0000      -0.656002       -17.8507 
   5   2.0000      -0.563105       -15.3229 
   6   2.0000      -0.529334       -14.4039 
   7   2.0000      -0.499974       -13.6050 
   8   2.0000      -0.373873       -10.1736 
   9   0.0000       0.226944         6.1755 
  10   0.0000       0.259739         7.0679 
  11   0.0000       0.284484         7.7412 
  12   0.0000       0.306155         8.3309 
  13   0.0000       0.360739         9.8162 
  14   0.0000       0.373468        10.1626 
  15   0.0000       0.411102        11.1866 
  16   0.0000       0.731396        19.9023 
  17   0.0000       0.768300        20.9065 
  18   0.0000       0.781682        21.2707 
  19   0.0000       0.857372        23.3303 
  20   0.0000       0.952482        25.9184 
  21   0.0000       1.036492        28.2044 
  22   0.0000       1.132228        30.8095 
  23   0.0000       1.170409        31.8485 
  24   0.0000       1.215191        33.0670 
  25   0.0000       1.222243        33.2589 
  26   0.0000       1.243369        33.8338 
  27   0.0000       1.272888        34.6370 
  28   0.0000       1.350240        36.7419 
  29   0.0000       1.624313        44.1998 

                    ********************************
                    * MULLIKEN POPULATION ANALYSIS *
                    ********************************

-----------------------
MULLIKEN ATOMIC CHARGES
-----------------------
   0 C :   -0.451466
   1 C :   -0.487045
   2 H :    0.153729
   3 H :    0.145422
   4 H :    0.156135
   5 H :    0.158441
   6 H :    0.122807
   7 H :    0.201978
Sum of atomic charges:    0.0000000

--------------------------------
MULLIKEN REDUCED ORBITAL CHARGES
--------------------------------
  0 C s       :     3.347273  s :     3.347273
      pz      :     1.077366  p :     3.104194
      px      :     0.936009
      py      :     1.090818
  1 C s       :     3.276461  s :     3.276461
      pz      :     1.246133  p :     3.210584
      px      :     0.938561
      py      :     1.025890
  2 H s       :     0.846271  s :     0.846271
  3 H s       :     0.854578  s :     0.854578
  4 H s       :     0.843865  s :     0.843865
  5 H s       :     0.841559  s :     0.841559
  6 H s       :     0.877193  s :     0.877193
  7 H s       :     0.798022  s :     0.798022


                     *******************************
                     * LOEWDIN POPULATION ANALYSIS *
                     *******************************

----------------------
LOEWDIN ATOMIC CHARGES
----------------------
   0 C :   -0.312971
   1 C :   -0.440818
   2 H :    0.108897
   3 H :    0.100742
   4 H :    0.103393
   5 H :    0.167900
   6 H :    0.129225
   7 H :    0.143630

-------------------------------
LOEWDIN REDUCED ORBITAL CHARGES
-------------------------------
  0 C s       :     2.981836  s :     2.981836
      pz      :     1.132211  p :     3.331135
      px      :     1.062163
      py      :     1.136761
  1 C s       :     2.972513  s :     2.972513
      pz      :     1.338358  p :     3.468305
      px      :     1.052347
      py      :     1.077600
  2 H s       :     0.891103  s :     0.891103
  3 H s       :     0.899258  s :     0.899258
  4 H s       :     0.896607  s :     0.896607
  5 H s       :     0.832100  s :     0.832100
  6 H s       :     0.870775  s :     0.870775
  7 H s       :     0.856370  s :     0.856370


                      *****************************
                      * MAYER POPULATION ANALYSIS *
                      *****************************

  NA   - Mulliken gross atomic population
  ZA   - Total nuclear charge
  QA   - Mulliken gross atomic charge
  VA   - Mayer's total valence
  BVA  - Mayer's bonded valence
  FA   - Mayer's free valence

  ATOM       NA         ZA         QA         VA         BVA        FA
  0 C      6.4515     6.0000    -0.4515     3.7817     3.7817     0.0000
  1 C      6.4870     6.0000    -0.4870     3.6739     3.6739    -0.0000
  2 H      0.8463     1.0000     0.1537     0.9355     0.9355     0.0000
  3 H      0.8546     1.0000     0.1454     0.9298     0.9298     0.0000
  4 H      0.8439     1.0000     0.1561     0.9258     0.9258     0.0000
  5 H      0.8416     1.0000     0.1584     0.9209     0.9209    -0.0000
  6 H      0.8772     1.0000     0.1228     0.8818     0.8818    -0.0000
  7 H      0.7980     1.0000     0.2020     0.9365     0.9365    -0.0000

  Mayer bond orders larger than 0.1
B(  0-C ,  1-C ) :   0.9302 B(  0-C ,  2-H ) :   0.9678 B(  0-C ,  3-H ) :   0.9642 
B(  0-C ,  4-H ) :   0.9602 B(  1-C ,  5-H ) :   0.9292 B(  1-C ,  6-H ) :   0.9066 
B(  1-C ,  7-H ) :   0.9578 

-------
TIMINGS
-------

Total SCF time: 0 days 0 hours 0 min 2 sec 

Total time                  ....       2.411 sec
Sum of individual times     ....       2.396 sec  ( 99.4%)

Fock matrix formation       ....       2.133 sec  ( 88.5%)
Diagonalization             ....       0.003 sec  (  0.1%)
Density matrix formation    ....       0.000 sec  (  0.0%)
Population analysis         ....       0.001 sec  (  0.0%)
Initial guess               ....       0.187 sec  (  7.8%)
Orbital Transformation      ....       0.000 sec  (  0.0%)
Orbital Orthonormalization  ....       0.000 sec  (  0.0%)
DIIS solution               ....       0.001 sec  (  0.0%)
SOSCF solution              ....       0.006 sec  (  0.2%)

-------------------------   --------------------
FINAL SINGLE POINT ENERGY       -79.081531418111
-------------------------   --------------------


                            ***************************************
                            *     ORCA property calculations      *
                            ***************************************

                                    ---------------------
                                    Active property flags
                                    ---------------------
   (+) Dipole Moment


------------------------------------------------------------------------------
                       ORCA ELECTRIC PROPERTIES CALCULATION
------------------------------------------------------------------------------

Dipole Moment Calculation                       ... on
Quadrupole Moment Calculation                   ... off
Polarizability Calculation                      ... off
GBWName                                         ... ./task4/1.52986.gbw
Electron density file                           ... ./task4/1.52986.scfp.tmp
The origin for moment calculation is the CENTER OF MASS  = ( 1.445508, -0.032022 -0.055464)

-------------
DIPOLE MOMENT
-------------
                                X             Y             Z
Electronic contribution:      0.06829       0.24075       0.34665
Nuclear contribution   :      0.00000      -0.37886      -0.65621
                        -----------------------------------------
Total Dipole Moment    :      0.06829      -0.13811      -0.30956
                        -----------------------------------------
Magnitude (a.u.)       :      0.34578
Magnitude (Debye)      :      0.87890


Timings for individual modules:

Sum of individual times         ...        2.849 sec (=   0.047 min)
GTO integral calculation        ...        0.406 sec (=   0.007 min)  14.2 %
SCF iterations                  ...        2.444 sec (=   0.041 min)  85.8 %
                             ****ORCA TERMINATED NORMALLY****
TOTAL RUN TIME: 0 days 0 hours 0 minutes 3 seconds 23 msec
