
                                 *****************
                                 * O   R   C   A *
                                 *****************

           --- An Ab Initio, DFT and Semiempirical electronic structure package ---

                  #######################################################
                  #                        -***-                        #
                  #  Department of molecular theory and spectroscopy    #
                  #              Directorship: Frank Neese              #
                  # Max Planck Institute for Chemical Energy Conversion #
                  #                  D-45470 Muelheim/Ruhr              #
                  #                       Germany                       #
                  #                                                     #
                  #                  All rights reserved                #
                  #                        -***-                        #
                  #######################################################


                         Program Version 4.0.1.2 - RELEASE -


 With contributions from (in alphabetic order):
   Daniel Aravena         : Magnetic Properties
   Michael Atanasov       : Ab Initio Ligand Field Theory
   Ute Becker             : Parallelization
   Martin Brehm           : Molecular dynamics
   Dmytro Bykov           : SCF Hessian
   Vijay G. Chilkuri      : MRCI spin determinant printing
   Dipayan Datta          : RHF DLPNO-CCSD density
   Achintya Kumar Dutta   : EOM-CC, STEOM-CC
   Dmitry Ganyushin       : Spin-Orbit,Spin-Spin,Magnetic field MRCI
   Yang Guo               : DLPNO-NEVPT2, CIM, IAO-localization
   Andreas Hansen         : Spin unrestricted coupled pair/coupled cluster methods
   Lee Huntington         : MR-EOM, pCC
   Robert Izsak           : Overlap fitted RIJCOSX, COSX-SCS-MP3, EOM
   Christian Kollmar      : KDIIS, OOCD, Brueckner-CCSD(T), CCSD density
   Simone Kossmann        : Meta GGA functionals, TD-DFT gradient, OOMP2, MP2 Hessian
   Martin Krupicka        : AUTO-CI
   Dagmar Lenk            : GEPOL surface
   Dimitrios Liakos       : Extrapolation schemes; parallel MDCI
   Dimitrios Manganas     : ROCIS; embedding schemes
   Dimitrios Pantazis     : SARC Basis sets
   Taras Petrenko         : DFT Hessian,TD-DFT gradient, ASA, ECA, R-Raman, ABS, FL, XAS/XES, NRVS
   Peter Pinski           : DLPNO-MP2
   Christoph Reimann      : Effective Core Potentials
   Marius Retegan         : Local ZFS, SOC
   Christoph Riplinger    : Optimizer, TS searches, QM/MM, DLPNO-CCSD(T), (RO)-DLPNO pert. Triples
   Tobias Risthaus        : Range-separated hybrids, TD-DFT gradient, RPA, STAB
   Michael Roemelt        : Restricted open shell CIS
   Masaaki Saitow         : Open-shell DLPNO
   Barbara Sandhoefer     : DKH picture change effects
   Kantharuban Sivalingam : CASSCF convergence, NEVPT2, FIC-MRCI
   Georgi Stoychev        : AutoAux
   Boris Wezisla          : Elementary symmetry handling
   Frank Wennmohs         : Technical directorship


 We gratefully acknowledge several colleagues who have allowed us to
 interface, adapt or use parts of their codes:
   Stefan Grimme, W. Hujo, H. Kruse,             : VdW corrections, initial TS optimization,
                  C. Bannwarth                     DFT functionals, gCP, sTDA/sTD-DF
   Ed Valeev                                     : LibInt (2-el integral package), F12 methods
   Garnet Chan, S. Sharma, J. Yang, R. Olivares  : DMRG
   Ulf Ekstrom                                   : XCFun DFT Library
   Mihaly Kallay                                 : mrcc  (arbitrary order and MRCC methods)
   Andreas Klamt, Michael Diedenhofen            : otool_cosmo (COSMO solvation model)
   Jiri Pittner, Ondrej Demel                    : Mk-CCSD
   Frank Weinhold                                : gennbo (NPA and NBO analysis)
   Christopher J. Cramer and Donald G. Truhlar   : smd solvation model


 Your calculation uses the libint2 library for the computation of 2-el integrals
 For citations please refer to: http://libint.valeyev.net

 This ORCA versions uses:
   CBLAS   interface :  Fast vector & matrix operations
   LAPACKE interface :  Fast linear algebra routines
   SCALAPACK package :  Parallel linear algebra routines


Your calculation utilizes the basis: 6-31G
   H-He, Li-Ne : W. J. Hehre, R. Ditchfield and J.A. Pople, J. Chem. Phys. 56, 2257 (1972).
                 Note: He and Ne are unpublished basis sets taken from the Gaussian program.
                 Note: Li and B from J. D. Dill and J. A. Pople, J. Chem. Phys. 62, 2921 (1975).
   Na - Ar     : M. M. Francl, W. J. Pietro, W. J. Hehre, J. S. Binkley, M. S. Gordon, 
                 D. J. DeFrees and J. A. Pople, J. Chem. Phys. 77, 3654 (1982).
   K - Zn      : V. A. Rassolov, J. A. Pople, M. A. Ratner, and T. L. Windus, J. Chem. Phys. 109, 1223 (1998).

================================================================================
                                        WARNINGS
                       Please study these warnings very carefully!
================================================================================

Warning: TCutStore was < 0. Adjusted to Thresh (uncritical)

INFO   : the flag for use of LIBINT has been found!

================================================================================
                                       INPUT FILE
================================================================================
NAME = ./task4/1.62986.zm
|  1> !HF RHF 6-31G
|  2>     * int 0 1
|  3>     C 0 0 0 0 0 0 
|  4>     C 1 0 0 1.62986 0 0 
|  5>     H 1 2 0 1.08439 111.2 0
|  6>     H 1 2 3 1.08439 111.2 120
|  7>     H 1 2 3 1.08439 111.2 -120
|  8>     H 2 1 3 1.08439 111.2 180
|  9>     H 2 1 5 1.08439 111.2 120
| 10>     H 2 1 5 1.08439 111.2 240
| 11>     *
| 12>     
| 13> 
| 14>                          ****END OF INPUT****
================================================================================

                       ****************************
                       * Single Point Calculation *
                       ****************************

---------------------------------
CARTESIAN COORDINATES (ANGSTROEM)
---------------------------------
  C      0.000000    0.000000    0.000000
  C      1.629860    0.000000    0.000000
  H     -0.392142    1.011003    0.000000
  H     -0.392142   -0.505501   -0.875554
  H     -0.392142   -0.505501    0.875554
  H      2.022002   -1.011003    0.000000
  H      2.022002   -0.505501   -0.875554
  H      2.022002    1.011003   -0.000000

----------------------------
CARTESIAN COORDINATES (A.U.)
----------------------------
  NO LB      ZA    FRAG     MASS         X           Y           Z
   0 C     6.0000    0    12.011    0.000000    0.000000    0.000000
   1 C     6.0000    0    12.011    3.079989    0.000000    0.000000
   2 H     1.0000    0     1.008   -0.741041    1.910518    0.000000
   3 H     1.0000    0     1.008   -0.741041   -0.955259   -1.654557
   4 H     1.0000    0     1.008   -0.741041   -0.955259    1.654557
   5 H     1.0000    0     1.008    3.821030   -1.910518    0.000000
   6 H     1.0000    0     1.008    3.821030   -0.955259   -1.654557
   7 H     1.0000    0     1.008    3.821030    1.910518   -0.000000

--------------------------------
INTERNAL COORDINATES (ANGSTROEM)
--------------------------------
 C      0   0   0     0.000000000000     0.00000000     0.00000000
 C      1   0   0     1.629860000000     0.00000000     0.00000000
 H      1   2   0     1.084390000000   111.20000000     0.00000000
 H      1   2   3     1.084390000000   111.20000000   120.00000000
 H      1   2   3     1.084390000000   111.20000000  -120.00000000
 H      2   1   3     1.084390000000   111.20000000   180.00000000
 H      2   1   5     1.084390000000   111.20000000   120.00000000
 H      2   1   5     1.084390000000   111.20000000   240.00000000

---------------------------
INTERNAL COORDINATES (A.U.)
---------------------------
 C      0   0   0     0.000000000000     0.00000000     0.00000000
 C      1   0   0     3.079989036633     0.00000000     0.00000000
 H      1   2   0     2.049200122363   111.20000000     0.00000000
 H      1   2   3     2.049200122363   111.20000000   120.00000000
 H      1   2   3     2.049200122363   111.20000000  -120.00000000
 H      2   1   3     2.049200122363   111.20000000   180.00000000
 H      2   1   5     2.049200122363   111.20000000   120.00000000
 H      2   1   5     2.049200122363   111.20000000   240.00000000

---------------------
BASIS SET INFORMATION
---------------------
There are 2 groups of distinct atoms

 Group   1 Type C   : 10s4p contracted to 3s2p pattern {631/31}
 Group   2 Type H   : 4s contracted to 2s pattern {31}

Atom   0C    basis set group =>   1
Atom   1C    basis set group =>   1
Atom   2H    basis set group =>   2
Atom   3H    basis set group =>   2
Atom   4H    basis set group =>   2
Atom   5H    basis set group =>   2
Atom   6H    basis set group =>   2
Atom   7H    basis set group =>   2
------------------------------------------------------------------------------
                           ORCA GTO INTEGRAL CALCULATION
------------------------------------------------------------------------------

                         BASIS SET STATISTICS AND STARTUP INFO

 # of primitive gaussian shells          ...   52
 # of primitive gaussian functions       ...   68
 # of contracted shells                  ...   22
 # of contracted basis functions         ...   30
 Highest angular momentum                ...    1
 Maximum contraction depth               ...    6
 Integral package used                   ... LIBINT
 Integral threshhold            Thresh   ...  1.000e-10
 Primitive cut-off              TCut     ...  1.000e-11


------------------------------ INTEGRAL EVALUATION ----------------------------


 * One electron integrals 
 Pre-screening matrix                    ... done
 Shell pair data                         ... done (   0.000 sec)

-------------------------------------------------------------------------------
                                 ORCA SCF
-------------------------------------------------------------------------------

------------
SCF SETTINGS
------------
Hamiltonian:
 Ab initio Hamiltonian  Method          .... Hartree-Fock(GTOs)


General Settings:
 Integral files         IntName         .... ./task4/1.62986
 Hartree-Fock type      HFTyp           .... RHF
 Total Charge           Charge          ....    0
 Multiplicity           Mult            ....    1
 Number of Electrons    NEL             ....   18
 Basis Dimension        Dim             ....   30
 Nuclear Repulsion      ENuc            ....     41.3975282947 Eh

Convergence Acceleration:
 DIIS                   CNVDIIS         .... on
   Start iteration      DIISMaxIt       ....    12
   Startup error        DIISStart       ....  0.200000
   # of expansion vecs  DIISMaxEq       ....     5
   Bias factor          DIISBfac        ....   1.050
   Max. coefficient     DIISMaxC        ....  10.000
 Newton-Raphson         CNVNR           .... off
 SOSCF                  CNVSOSCF        .... on
   Start iteration      SOSCFMaxIt      ....   150
   Startup grad/error   SOSCFStart      ....  0.003300
 Level Shifting         CNVShift        .... on
   Level shift para.    LevelShift      ....    0.2500
   Turn off err/grad.   ShiftErr        ....    0.0010
 Zerner damping         CNVZerner       .... off
 Static damping         CNVDamp         .... on
   Fraction old density DampFac         ....    0.7000
   Max. Damping (<1)    DampMax         ....    0.9800
   Min. Damping (>=0)   DampMin         ....    0.0000
   Turn off err/grad.   DampErr         ....    0.1000
 Fernandez-Rico         CNVRico         .... off

SCF Procedure:
 Maximum # iterations   MaxIter         ....   125
 SCF integral mode      SCFMode         .... Direct
   Integral package                     .... LIBINT
 Reset frequeny         DirectResetFreq ....    20
 Integral Threshold     Thresh          ....  1.000e-10 Eh
 Primitive CutOff       TCut            ....  1.000e-11 Eh

Convergence Tolerance:
 Convergence Check Mode ConvCheckMode   .... Total+1el-Energy
 Convergence forced     ConvForced      .... 0
 Energy Change          TolE            ....  1.000e-06 Eh
 1-El. energy change                    ....  1.000e-03 Eh
 Orbital Gradient       TolG            ....  5.000e-05
 Orbital Rotation angle TolX            ....  5.000e-05
 DIIS Error             TolErr          ....  1.000e-06


Diagonalization of the overlap matrix:
Smallest eigenvalue                        ... 1.277e-02
Time for diagonalization                   ...    0.001 sec
Threshold for overlap eigenvalues          ... 1.000e-08
Number of eigenvalues below threshold      ... 0
Time for construction of square roots      ...    0.000 sec
Total time needed                          ...    0.001 sec

-------------------
DFT GRID GENERATION
-------------------

General Integration Accuracy     IntAcc      ...  4.340
Radial Grid Type                 RadialGrid  ... Gauss-Chebyshev
Angular Grid (max. acc.)         AngularGrid ... Lebedev-110
Angular grid pruning method      GridPruning ... 3 (G Style)
Weight generation scheme         WeightScheme... Becke
Basis function cutoff            BFCut       ...    1.0000e-10
Integration weight cutoff        WCut        ...    1.0000e-14
Grids for H and He will be reduced by one unit

# of grid points (after initial pruning)     ...   8076 (   0.0 sec)
# of grid points (after weights+screening)   ...   7769 (   0.0 sec)
nearest neighbour list constructed           ...    0.0 sec
Grid point re-assignment to atoms done       ...    0.0 sec
Grid point division into batches done        ...    0.0 sec
Reduced shell lists constructed in    0.0 sec

Total number of grid points                  ...     7769
Total number of batches                      ...      125
Average number of points per batch           ...       62
Average number of grid points per atom       ...      971
Average number of shells per batch           ...    19.72 (89.65%)
Average number of basis functions per batch  ...    27.29 (90.98%)
Average number of large shells per batch     ...    17.54 (88.93%)
Average number of large basis fcns per batch ...    24.90 (91.25%)
Maximum spatial batch extension              ...  20.53, 20.20, 22.59 au
Average spatial batch extension              ...   4.77,  4.42,  4.47 au

Time for grid setup =    0.060 sec

------------------------------
INITIAL GUESS: MODEL POTENTIAL
------------------------------
Loading Hartree-Fock densities                     ... done
Calculating cut-offs                               ... done
Setting up the integral package                    ... done
Initializing the effective Hamiltonian             ... done
Starting the Coulomb interaction                   ... done (   0.0 sec)
Reading the grid                                   ... done
Mapping shells                                     ... done
Starting the XC term evaluation                    ... done (   0.0 sec)
Transforming the Hamiltonian                       ... done (   0.0 sec)
Diagonalizing the Hamiltonian                      ... done (   0.0 sec)
Back transforming the eigenvectors                 ... done (   0.0 sec)
Now organizing SCF variables                       ... done
                      ------------------
                      INITIAL GUESS DONE (   0.2 sec)
                      ------------------
--------------
SCF ITERATIONS
--------------
ITER       Energy         Delta-E        Max-DP      RMS-DP      [F,P]     Damp
               ***  Starting incremental Fock matrix formation  ***
  0    -78.9281115136   0.000000000000 0.06808538  0.00632443  0.2129593 0.7000
  1    -78.9833049514  -0.055193437863 0.05257493  0.00515082  0.1370244 0.7000
                               ***Turning on DIIS***
  2    -79.0156714703  -0.032366518915 0.11087233  0.01110790  0.0809720 0.0000
  3    -78.8287051298   0.186966340503 0.02418253  0.00282118  0.0367777 0.0000
  4    -79.0459400202  -0.217234890371 0.00343378  0.00053623  0.0045314 0.0000
                      *** Initiating the SOSCF procedure ***
                           *** Shutting down DIIS ***
                      *** Re-Reading the Fockian *** 
                      *** Removing any level shift *** 
ITER      Energy       Delta-E        Grad      Rot      Max-DP    RMS-DP
  5    -79.07207407  -0.0261340506  0.000835  0.000835  0.001358  0.000224
               *** Restarting incremental Fock matrix formation ***
  6    -79.07721660  -0.0051425252  0.000318  0.000493  0.000769  0.000113
  7    -79.07721834  -0.0000017411  0.000149  0.000400  0.000686  0.000078
                 **** Energy Check signals convergence ****
              ***Rediagonalizing the Fockian in SOSCF/NRSCF***

               *****************************************************
               *                     SUCCESS                       *
               *           SCF CONVERGED AFTER   8 CYCLES          *
               *****************************************************


----------------
TOTAL SCF ENERGY
----------------

Total Energy       :          -79.07721867 Eh           -2151.80052 eV

Components:
Nuclear Repulsion  :           41.39752829 Eh            1126.48401 eV
Electronic Energy  :         -120.47474696 Eh           -3278.28453 eV
One Electron Energy:         -187.06336143 Eh           -5090.25285 eV
Two Electron Energy:           66.58861447 Eh            1811.96832 eV

Virial components:
Potential Energy   :         -158.25516147 Eh           -4306.34187 eV
Kinetic Energy     :           79.17794281 Eh            2154.54136 eV
Virial Ratio       :            1.99872788


---------------
SCF CONVERGENCE
---------------

  Last Energy change         ...   -3.2816e-07  Tolerance :   1.0000e-06
  Last MAX-Density change    ...    7.2477e-05  Tolerance :   1.0000e-05
  Last RMS-Density change    ...    7.8207e-06  Tolerance :   1.0000e-06
  Last Orbital Gradient      ...    2.3570e-05  Tolerance :   5.0000e-05
  Last Orbital Rotation      ...    3.1372e-05  Tolerance :   5.0000e-05

             **** THE GBW FILE WAS UPDATED (./task4/1.62986.gbw) ****
             **** DENSITY FILE WAS UPDATED (./task4/1.62986.scfp.tmp) ****
             **** ENERGY FILE WAS UPDATED (./task4/1.62986.en.tmp) ****
----------------
ORBITAL ENERGIES
----------------

  NO   OCC          E(Eh)            E(eV) 
   0   2.0000     -11.219028      -305.2853 
   1   2.0000     -11.218557      -305.2725 
   2   2.0000      -1.021361       -27.7926 
   3   2.0000      -0.885990       -24.1090 
   4   2.0000      -0.648077       -17.6351 
   5   2.0000      -0.555700       -15.1214 
   6   2.0000      -0.528102       -14.3704 
   7   2.0000      -0.486936       -13.2502 
   8   2.0000      -0.379695       -10.3320 
   9   0.0000       0.227357         6.1867 
  10   0.0000       0.264942         7.2094 
  11   0.0000       0.277980         7.5642 
  12   0.0000       0.310861         8.4590 
  13   0.0000       0.352225         9.5845 
  14   0.0000       0.367816        10.0088 
  15   0.0000       0.384758        10.4698 
  16   0.0000       0.751927        20.4610 
  17   0.0000       0.768342        20.9076 
  18   0.0000       0.769645        20.9431 
  19   0.0000       0.846956        23.0468 
  20   0.0000       0.906509        24.6674 
  21   0.0000       1.034955        28.1625 
  22   0.0000       1.123085        30.5607 
  23   0.0000       1.173081        31.9212 
  24   0.0000       1.216933        33.1144 
  25   0.0000       1.229186        33.4479 
  26   0.0000       1.239968        33.7413 
  27   0.0000       1.278443        34.7882 
  28   0.0000       1.332699        36.2646 
  29   0.0000       1.594495        43.3884 

                    ********************************
                    * MULLIKEN POPULATION ANALYSIS *
                    ********************************

-----------------------
MULLIKEN ATOMIC CHARGES
-----------------------
   0 C :   -0.449634
   1 C :   -0.486103
   2 H :    0.153956
   3 H :    0.146653
   4 H :    0.157171
   5 H :    0.158353
   6 H :    0.119231
   7 H :    0.200372
Sum of atomic charges:   -0.0000000

--------------------------------
MULLIKEN REDUCED ORBITAL CHARGES
--------------------------------
  0 C s       :     3.355889  s :     3.355889
      pz      :     1.072025  p :     3.093744
      px      :     0.937707
      py      :     1.084013
  1 C s       :     3.294450  s :     3.294450
      pz      :     1.242573  p :     3.191653
      px      :     0.939142
      py      :     1.009938
  2 H s       :     0.846044  s :     0.846044
  3 H s       :     0.853347  s :     0.853347
  4 H s       :     0.842829  s :     0.842829
  5 H s       :     0.841647  s :     0.841647
  6 H s       :     0.880769  s :     0.880769
  7 H s       :     0.799628  s :     0.799628


                     *******************************
                     * LOEWDIN POPULATION ANALYSIS *
                     *******************************

----------------------
LOEWDIN ATOMIC CHARGES
----------------------
   0 C :   -0.313846
   1 C :   -0.445002
   2 H :    0.108962
   3 H :    0.101843
   4 H :    0.105405
   5 H :    0.169581
   6 H :    0.129233
   7 H :    0.143824

-------------------------------
LOEWDIN REDUCED ORBITAL CHARGES
-------------------------------
  0 C s       :     2.998962  s :     2.998962
      pz      :     1.133502  p :     3.314884
      px      :     1.044376
      py      :     1.137007
  1 C s       :     2.991182  s :     2.991182
      pz      :     1.341311  p :     3.453820
      px      :     1.036234
      py      :     1.076275
  2 H s       :     0.891038  s :     0.891038
  3 H s       :     0.898157  s :     0.898157
  4 H s       :     0.894595  s :     0.894595
  5 H s       :     0.830419  s :     0.830419
  6 H s       :     0.870767  s :     0.870767
  7 H s       :     0.856176  s :     0.856176


                      *****************************
                      * MAYER POPULATION ANALYSIS *
                      *****************************

  NA   - Mulliken gross atomic population
  ZA   - Total nuclear charge
  QA   - Mulliken gross atomic charge
  VA   - Mayer's total valence
  BVA  - Mayer's bonded valence
  FA   - Mayer's free valence

  ATOM       NA         ZA         QA         VA         BVA        FA
  0 C      6.4496     6.0000    -0.4496     3.7982     3.7982    -0.0000
  1 C      6.4861     6.0000    -0.4861     3.6931     3.6931     0.0000
  2 H      0.8460     1.0000     0.1540     0.9343     0.9343     0.0000
  3 H      0.8533     1.0000     0.1467     0.9294     0.9294    -0.0000
  4 H      0.8428     1.0000     0.1572     0.9266     0.9266    -0.0000
  5 H      0.8416     1.0000     0.1584     0.9198     0.9198    -0.0000
  6 H      0.8808     1.0000     0.1192     0.8827     0.8827     0.0000
  7 H      0.7996     1.0000     0.2004     0.9363     0.9363    -0.0000

  Mayer bond orders larger than 0.1
B(  0-C ,  1-C ) :   0.9473 B(  0-C ,  2-H ) :   0.9632 B(  0-C ,  3-H ) :   0.9595 
B(  0-C ,  4-H ) :   0.9573 B(  1-C ,  5-H ) :   0.9252 B(  1-C ,  6-H ) :   0.9040 
B(  1-C ,  7-H ) :   0.9535 

-------
TIMINGS
-------

Total SCF time: 0 days 0 hours 0 min 2 sec 

Total time                  ....       2.354 sec
Sum of individual times     ....       2.334 sec  ( 99.2%)

Fock matrix formation       ....       2.079 sec  ( 88.3%)
Diagonalization             ....       0.003 sec  (  0.1%)
Density matrix formation    ....       0.000 sec  (  0.0%)
Population analysis         ....       0.001 sec  (  0.1%)
Initial guess               ....       0.188 sec  (  8.0%)
Orbital Transformation      ....       0.000 sec  (  0.0%)
Orbital Orthonormalization  ....       0.000 sec  (  0.0%)
DIIS solution               ....       0.001 sec  (  0.0%)
SOSCF solution              ....       0.002 sec  (  0.1%)

-------------------------   --------------------
FINAL SINGLE POINT ENERGY       -79.077218665255
-------------------------   --------------------


                            ***************************************
                            *     ORCA property calculations      *
                            ***************************************

                                    ---------------------
                                    Active property flags
                                    ---------------------
   (+) Dipole Moment


------------------------------------------------------------------------------
                       ORCA ELECTRIC PROPERTIES CALCULATION
------------------------------------------------------------------------------

Dipole Moment Calculation                       ... on
Quadrupole Moment Calculation                   ... off
Polarizability Calculation                      ... off
GBWName                                         ... ./task4/1.62986.gbw
Electron density file                           ... ./task4/1.62986.scfp.tmp
The origin for moment calculation is the CENTER OF MASS  = ( 1.539995, -0.032022 -0.055464)

-------------
DIPOLE MOMENT
-------------
                                X             Y             Z
Electronic contribution:      0.05858       0.24170       0.34862
Nuclear contribution   :      0.00000      -0.37886      -0.65621
                        -----------------------------------------
Total Dipole Moment    :      0.05858      -0.13716      -0.30759
                        -----------------------------------------
Magnitude (a.u.)       :      0.34184
Magnitude (Debye)      :      0.86889


Timings for individual modules:

Sum of individual times         ...        2.752 sec (=   0.046 min)
GTO integral calculation        ...        0.372 sec (=   0.006 min)  13.5 %
SCF iterations                  ...        2.380 sec (=   0.040 min)  86.5 %
                             ****ORCA TERMINATED NORMALLY****
TOTAL RUN TIME: 0 days 0 hours 0 minutes 2 seconds 919 msec
