
                                 *****************
                                 * O   R   C   A *
                                 *****************

           --- An Ab Initio, DFT and Semiempirical electronic structure package ---

                  #######################################################
                  #                        -***-                        #
                  #  Department of molecular theory and spectroscopy    #
                  #              Directorship: Frank Neese              #
                  # Max Planck Institute for Chemical Energy Conversion #
                  #                  D-45470 Muelheim/Ruhr              #
                  #                       Germany                       #
                  #                                                     #
                  #                  All rights reserved                #
                  #                        -***-                        #
                  #######################################################


                         Program Version 4.0.1.2 - RELEASE -


 With contributions from (in alphabetic order):
   Daniel Aravena         : Magnetic Properties
   Michael Atanasov       : Ab Initio Ligand Field Theory
   Ute Becker             : Parallelization
   Martin Brehm           : Molecular dynamics
   Dmytro Bykov           : SCF Hessian
   Vijay G. Chilkuri      : MRCI spin determinant printing
   Dipayan Datta          : RHF DLPNO-CCSD density
   Achintya Kumar Dutta   : EOM-CC, STEOM-CC
   Dmitry Ganyushin       : Spin-Orbit,Spin-Spin,Magnetic field MRCI
   Yang Guo               : DLPNO-NEVPT2, CIM, IAO-localization
   Andreas Hansen         : Spin unrestricted coupled pair/coupled cluster methods
   Lee Huntington         : MR-EOM, pCC
   Robert Izsak           : Overlap fitted RIJCOSX, COSX-SCS-MP3, EOM
   Christian Kollmar      : KDIIS, OOCD, Brueckner-CCSD(T), CCSD density
   Simone Kossmann        : Meta GGA functionals, TD-DFT gradient, OOMP2, MP2 Hessian
   Martin Krupicka        : AUTO-CI
   Dagmar Lenk            : GEPOL surface
   Dimitrios Liakos       : Extrapolation schemes; parallel MDCI
   Dimitrios Manganas     : ROCIS; embedding schemes
   Dimitrios Pantazis     : SARC Basis sets
   Taras Petrenko         : DFT Hessian,TD-DFT gradient, ASA, ECA, R-Raman, ABS, FL, XAS/XES, NRVS
   Peter Pinski           : DLPNO-MP2
   Christoph Reimann      : Effective Core Potentials
   Marius Retegan         : Local ZFS, SOC
   Christoph Riplinger    : Optimizer, TS searches, QM/MM, DLPNO-CCSD(T), (RO)-DLPNO pert. Triples
   Tobias Risthaus        : Range-separated hybrids, TD-DFT gradient, RPA, STAB
   Michael Roemelt        : Restricted open shell CIS
   Masaaki Saitow         : Open-shell DLPNO
   Barbara Sandhoefer     : DKH picture change effects
   Kantharuban Sivalingam : CASSCF convergence, NEVPT2, FIC-MRCI
   Georgi Stoychev        : AutoAux
   Boris Wezisla          : Elementary symmetry handling
   Frank Wennmohs         : Technical directorship


 We gratefully acknowledge several colleagues who have allowed us to
 interface, adapt or use parts of their codes:
   Stefan Grimme, W. Hujo, H. Kruse,             : VdW corrections, initial TS optimization,
                  C. Bannwarth                     DFT functionals, gCP, sTDA/sTD-DF
   Ed Valeev                                     : LibInt (2-el integral package), F12 methods
   Garnet Chan, S. Sharma, J. Yang, R. Olivares  : DMRG
   Ulf Ekstrom                                   : XCFun DFT Library
   Mihaly Kallay                                 : mrcc  (arbitrary order and MRCC methods)
   Andreas Klamt, Michael Diedenhofen            : otool_cosmo (COSMO solvation model)
   Jiri Pittner, Ondrej Demel                    : Mk-CCSD
   Frank Weinhold                                : gennbo (NPA and NBO analysis)
   Christopher J. Cramer and Donald G. Truhlar   : smd solvation model


 Your calculation uses the libint2 library for the computation of 2-el integrals
 For citations please refer to: http://libint.valeyev.net

 This ORCA versions uses:
   CBLAS   interface :  Fast vector & matrix operations
   LAPACKE interface :  Fast linear algebra routines
   SCALAPACK package :  Parallel linear algebra routines


Your calculation utilizes the basis: 6-31G
   H-He, Li-Ne : W. J. Hehre, R. Ditchfield and J.A. Pople, J. Chem. Phys. 56, 2257 (1972).
                 Note: He and Ne are unpublished basis sets taken from the Gaussian program.
                 Note: Li and B from J. D. Dill and J. A. Pople, J. Chem. Phys. 62, 2921 (1975).
   Na - Ar     : M. M. Francl, W. J. Pietro, W. J. Hehre, J. S. Binkley, M. S. Gordon, 
                 D. J. DeFrees and J. A. Pople, J. Chem. Phys. 77, 3654 (1982).
   K - Zn      : V. A. Rassolov, J. A. Pople, M. A. Ratner, and T. L. Windus, J. Chem. Phys. 109, 1223 (1998).

================================================================================
                                        WARNINGS
                       Please study these warnings very carefully!
================================================================================

Warning: TCutStore was < 0. Adjusted to Thresh (uncritical)

INFO   : the flag for use of LIBINT has been found!

================================================================================
                                       INPUT FILE
================================================================================
NAME = ./task4/1.92986.zm
|  1> !HF RHF 6-31G
|  2>     * int 0 1
|  3>     C 0 0 0 0 0 0 
|  4>     C 1 0 0 1.92986 0 0 
|  5>     H 1 2 0 1.08439 111.2 0
|  6>     H 1 2 3 1.08439 111.2 120
|  7>     H 1 2 3 1.08439 111.2 -120
|  8>     H 2 1 3 1.08439 111.2 180
|  9>     H 2 1 5 1.08439 111.2 120
| 10>     H 2 1 5 1.08439 111.2 240
| 11>     *
| 12>     
| 13> 
| 14>                          ****END OF INPUT****
================================================================================

                       ****************************
                       * Single Point Calculation *
                       ****************************

---------------------------------
CARTESIAN COORDINATES (ANGSTROEM)
---------------------------------
  C      0.000000    0.000000    0.000000
  C      1.929860    0.000000    0.000000
  H     -0.392142    1.011003    0.000000
  H     -0.392142   -0.505501   -0.875554
  H     -0.392142   -0.505501    0.875554
  H      2.322002   -1.011003    0.000000
  H      2.322002   -0.505501   -0.875554
  H      2.322002    1.011003   -0.000000

----------------------------
CARTESIAN COORDINATES (A.U.)
----------------------------
  NO LB      ZA    FRAG     MASS         X           Y           Z
   0 C     6.0000    0    12.011    0.000000    0.000000    0.000000
   1 C     6.0000    0    12.011    3.646907    0.000000    0.000000
   2 H     1.0000    0     1.008   -0.741041    1.910518    0.000000
   3 H     1.0000    0     1.008   -0.741041   -0.955259   -1.654557
   4 H     1.0000    0     1.008   -0.741041   -0.955259    1.654557
   5 H     1.0000    0     1.008    4.387948   -1.910518    0.000000
   6 H     1.0000    0     1.008    4.387948   -0.955259   -1.654557
   7 H     1.0000    0     1.008    4.387948    1.910518   -0.000000

--------------------------------
INTERNAL COORDINATES (ANGSTROEM)
--------------------------------
 C      0   0   0     0.000000000000     0.00000000     0.00000000
 C      1   0   0     1.929860000000     0.00000000     0.00000000
 H      1   2   0     1.084390000000   111.20000000     0.00000000
 H      1   2   3     1.084390000000   111.20000000   120.00000000
 H      1   2   3     1.084390000000   111.20000000  -120.00000000
 H      2   1   3     1.084390000000   111.20000000   180.00000000
 H      2   1   5     1.084390000000   111.20000000   120.00000000
 H      2   1   5     1.084390000000   111.20000000   240.00000000

---------------------------
INTERNAL COORDINATES (A.U.)
---------------------------
 C      0   0   0     0.000000000000     0.00000000     0.00000000
 C      1   0   0     3.646906876809     0.00000000     0.00000000
 H      1   2   0     2.049200122363   111.20000000     0.00000000
 H      1   2   3     2.049200122363   111.20000000   120.00000000
 H      1   2   3     2.049200122363   111.20000000  -120.00000000
 H      2   1   3     2.049200122363   111.20000000   180.00000000
 H      2   1   5     2.049200122363   111.20000000   120.00000000
 H      2   1   5     2.049200122363   111.20000000   240.00000000

---------------------
BASIS SET INFORMATION
---------------------
There are 2 groups of distinct atoms

 Group   1 Type C   : 10s4p contracted to 3s2p pattern {631/31}
 Group   2 Type H   : 4s contracted to 2s pattern {31}

Atom   0C    basis set group =>   1
Atom   1C    basis set group =>   1
Atom   2H    basis set group =>   2
Atom   3H    basis set group =>   2
Atom   4H    basis set group =>   2
Atom   5H    basis set group =>   2
Atom   6H    basis set group =>   2
Atom   7H    basis set group =>   2
------------------------------------------------------------------------------
                           ORCA GTO INTEGRAL CALCULATION
------------------------------------------------------------------------------

                         BASIS SET STATISTICS AND STARTUP INFO

 # of primitive gaussian shells          ...   52
 # of primitive gaussian functions       ...   68
 # of contracted shells                  ...   22
 # of contracted basis functions         ...   30
 Highest angular momentum                ...    1
 Maximum contraction depth               ...    6
 Integral package used                   ... LIBINT
 Integral threshhold            Thresh   ...  1.000e-10
 Primitive cut-off              TCut     ...  1.000e-11


------------------------------ INTEGRAL EVALUATION ----------------------------


 * One electron integrals 
 Pre-screening matrix                    ... done
 Shell pair data                         ... done (   0.000 sec)

-------------------------------------------------------------------------------
                                 ORCA SCF
-------------------------------------------------------------------------------

------------
SCF SETTINGS
------------
Hamiltonian:
 Ab initio Hamiltonian  Method          .... Hartree-Fock(GTOs)


General Settings:
 Integral files         IntName         .... ./task4/1.92986
 Hartree-Fock type      HFTyp           .... RHF
 Total Charge           Charge          ....    0
 Multiplicity           Mult            ....    1
 Number of Electrons    NEL             ....   18
 Basis Dimension        Dim             ....   30
 Nuclear Repulsion      ENuc            ....     38.5223564573 Eh

Convergence Acceleration:
 DIIS                   CNVDIIS         .... on
   Start iteration      DIISMaxIt       ....    12
   Startup error        DIISStart       ....  0.200000
   # of expansion vecs  DIISMaxEq       ....     5
   Bias factor          DIISBfac        ....   1.050
   Max. coefficient     DIISMaxC        ....  10.000
 Newton-Raphson         CNVNR           .... off
 SOSCF                  CNVSOSCF        .... on
   Start iteration      SOSCFMaxIt      ....   150
   Startup grad/error   SOSCFStart      ....  0.003300
 Level Shifting         CNVShift        .... on
   Level shift para.    LevelShift      ....    0.2500
   Turn off err/grad.   ShiftErr        ....    0.0010
 Zerner damping         CNVZerner       .... off
 Static damping         CNVDamp         .... on
   Fraction old density DampFac         ....    0.7000
   Max. Damping (<1)    DampMax         ....    0.9800
   Min. Damping (>=0)   DampMin         ....    0.0000
   Turn off err/grad.   DampErr         ....    0.1000
 Fernandez-Rico         CNVRico         .... off

SCF Procedure:
 Maximum # iterations   MaxIter         ....   125
 SCF integral mode      SCFMode         .... Direct
   Integral package                     .... LIBINT
 Reset frequeny         DirectResetFreq ....    20
 Integral Threshold     Thresh          ....  1.000e-10 Eh
 Primitive CutOff       TCut            ....  1.000e-11 Eh

Convergence Tolerance:
 Convergence Check Mode ConvCheckMode   .... Total+1el-Energy
 Convergence forced     ConvForced      .... 0
 Energy Change          TolE            ....  1.000e-06 Eh
 1-El. energy change                    ....  1.000e-03 Eh
 Orbital Gradient       TolG            ....  5.000e-05
 Orbital Rotation angle TolX            ....  5.000e-05
 DIIS Error             TolErr          ....  1.000e-06


Diagonalization of the overlap matrix:
Smallest eigenvalue                        ... 1.843e-02
Time for diagonalization                   ...    0.001 sec
Threshold for overlap eigenvalues          ... 1.000e-08
Number of eigenvalues below threshold      ... 0
Time for construction of square roots      ...    0.000 sec
Total time needed                          ...    0.001 sec

-------------------
DFT GRID GENERATION
-------------------

General Integration Accuracy     IntAcc      ...  4.340
Radial Grid Type                 RadialGrid  ... Gauss-Chebyshev
Angular Grid (max. acc.)         AngularGrid ... Lebedev-110
Angular grid pruning method      GridPruning ... 3 (G Style)
Weight generation scheme         WeightScheme... Becke
Basis function cutoff            BFCut       ...    1.0000e-10
Integration weight cutoff        WCut        ...    1.0000e-14
Grids for H and He will be reduced by one unit

# of grid points (after initial pruning)     ...   8076 (   0.0 sec)
# of grid points (after weights+screening)   ...   7793 (   0.0 sec)
nearest neighbour list constructed           ...    0.0 sec
Grid point re-assignment to atoms done       ...    0.0 sec
Grid point division into batches done        ...    0.0 sec
Reduced shell lists constructed in    0.0 sec

Total number of grid points                  ...     7793
Total number of batches                      ...      127
Average number of points per batch           ...       61
Average number of grid points per atom       ...      974
Average number of shells per batch           ...    19.43 (88.32%)
Average number of basis functions per batch  ...    27.01 (90.03%)
Average number of large shells per batch     ...    17.01 (87.54%)
Average number of large basis fcns per batch ...    24.26 (89.82%)
Maximum spatial batch extension              ...  20.83, 19.77, 22.59 au
Average spatial batch extension              ...   4.88,  4.25,  4.52 au

Time for grid setup =    0.060 sec

------------------------------
INITIAL GUESS: MODEL POTENTIAL
------------------------------
Loading Hartree-Fock densities                     ... done
Calculating cut-offs                               ... done
Setting up the integral package                    ... done
Initializing the effective Hamiltonian             ... done
Starting the Coulomb interaction                   ... done (   0.0 sec)
Reading the grid                                   ... done
Mapping shells                                     ... done
Starting the XC term evaluation                    ... done (   0.0 sec)
Transforming the Hamiltonian                       ... done (   0.0 sec)
Diagonalizing the Hamiltonian                      ... done (   0.0 sec)
Back transforming the eigenvectors                 ... done (   0.0 sec)
Now organizing SCF variables                       ... done
                      ------------------
                      INITIAL GUESS DONE (   0.2 sec)
                      ------------------
--------------
SCF ITERATIONS
--------------
ITER       Energy         Delta-E        Max-DP      RMS-DP      [F,P]     Damp
               ***  Starting incremental Fock matrix formation  ***
  0    -78.9054573560   0.000000000000 0.06102129  0.00571061  0.1913141 0.7000
  1    -78.9515831874  -0.046125831400 0.04747595  0.00470005  0.1253605 0.7000
                               ***Turning on DIIS***
  2    -78.9791440949  -0.027560907478 0.10084399  0.01031833  0.0748379 0.0000
  3    -78.8265631224   0.152580972480 0.02165931  0.00244543  0.0328463 0.0000
  4    -79.0036166221  -0.177053499744 0.00328385  0.00046670  0.0042195 0.0000
                      *** Initiating the SOSCF procedure ***
                           *** Shutting down DIIS ***
                      *** Re-Reading the Fockian *** 
                      *** Removing any level shift *** 
ITER      Energy       Delta-E        Grad      Rot      Max-DP    RMS-DP
  5    -79.02653873  -0.0229221044  0.000597  0.000597  0.001320  0.000194
               *** Restarting incremental Fock matrix formation ***
  6    -79.03198072  -0.0054419957  0.000297  0.000449  0.000718  0.000108
  7    -79.03198238  -0.0000016577  0.000137  0.000367  0.000662  0.000077
                 **** Energy Check signals convergence ****
              ***Rediagonalizing the Fockian in SOSCF/NRSCF***

               *****************************************************
               *                     SUCCESS                       *
               *           SCF CONVERGED AFTER   8 CYCLES          *
               *****************************************************


----------------
TOTAL SCF ENERGY
----------------

Total Energy       :          -79.03198271 Eh           -2150.56958 eV

Components:
Nuclear Repulsion  :           38.52235646 Eh            1048.24661 eV
Electronic Energy  :         -117.55433917 Eh           -3198.81619 eV
One Electron Energy:         -181.29239082 Eh           -4933.21675 eV
Two Electron Energy:           63.73805165 Eh            1734.40056 eV

Virial components:
Potential Energy   :         -157.90900587 Eh           -4296.92250 eV
Kinetic Energy     :           78.87702315 Eh            2146.35292 eV
Virial Ratio       :            2.00196457


---------------
SCF CONVERGENCE
---------------

  Last Energy change         ...   -3.3247e-07  Tolerance :   1.0000e-06
  Last MAX-Density change    ...    6.9541e-05  Tolerance :   1.0000e-05
  Last RMS-Density change    ...    8.2367e-06  Tolerance :   1.0000e-06
  Last Orbital Gradient      ...    2.5405e-05  Tolerance :   5.0000e-05
  Last Orbital Rotation      ...    2.9414e-05  Tolerance :   5.0000e-05

             **** THE GBW FILE WAS UPDATED (./task4/1.92986.gbw) ****
             **** DENSITY FILE WAS UPDATED (./task4/1.92986.scfp.tmp) ****
             **** ENERGY FILE WAS UPDATED (./task4/1.92986.en.tmp) ****
----------------
ORBITAL ENERGIES
----------------

  NO   OCC          E(Eh)            E(eV) 
   0   2.0000     -11.240467      -305.8686 
   1   2.0000     -11.238755      -305.8221 
   2   2.0000      -0.987539       -26.8723 
   3   2.0000      -0.901750       -24.5379 
   4   2.0000      -0.635967       -17.3056 
   5   2.0000      -0.546619       -14.8743 
   6   2.0000      -0.537944       -14.6382 
   7   2.0000      -0.433164       -11.7870 
   8   2.0000      -0.386186       -10.5086 
   9   0.0000       0.220205         5.9921 
  10   0.0000       0.239259         6.5106 
  11   0.0000       0.276255         7.5173 
  12   0.0000       0.307080         8.3561 
  13   0.0000       0.321933         8.7602 
  14   0.0000       0.352670         9.5966 
  15   0.0000       0.357694         9.7333 
  16   0.0000       0.709868        19.3165 
  17   0.0000       0.735289        20.0082 
  18   0.0000       0.778901        21.1950 
  19   0.0000       0.863475        23.4963 
  20   0.0000       0.894808        24.3490 
  21   0.0000       1.035207        28.1694 
  22   0.0000       1.092433        29.7266 
  23   0.0000       1.168231        31.7892 
  24   0.0000       1.215979        33.0885 
  25   0.0000       1.225942        33.3596 
  26   0.0000       1.236273        33.6407 
  27   0.0000       1.279969        34.8297 
  28   0.0000       1.296823        35.2883 
  29   0.0000       1.507256        41.0145 

                    ********************************
                    * MULLIKEN POPULATION ANALYSIS *
                    ********************************

-----------------------
MULLIKEN ATOMIC CHARGES
-----------------------
   0 C :   -0.439134
   1 C :   -0.474608
   2 H :    0.151674
   3 H :    0.146530
   4 H :    0.155569
   5 H :    0.156642
   6 H :    0.107924
   7 H :    0.195404
Sum of atomic charges:   -0.0000000

--------------------------------
MULLIKEN REDUCED ORBITAL CHARGES
--------------------------------
  0 C s       :     3.373634  s :     3.373634
      pz      :     1.057553  p :     3.065501
      px      :     0.942657
      py      :     1.065290
  1 C s       :     3.331759  s :     3.331759
      pz      :     1.231477  p :     3.142850
      px      :     0.938030
      py      :     0.973343
  2 H s       :     0.848326  s :     0.848326
  3 H s       :     0.853470  s :     0.853470
  4 H s       :     0.844431  s :     0.844431
  5 H s       :     0.843358  s :     0.843358
  6 H s       :     0.892076  s :     0.892076
  7 H s       :     0.804596  s :     0.804596


                     *******************************
                     * LOEWDIN POPULATION ANALYSIS *
                     *******************************

----------------------
LOEWDIN ATOMIC CHARGES
----------------------
   0 C :   -0.313142
   1 C :   -0.452983
   2 H :    0.108809
   3 H :    0.103940
   4 H :    0.108513
   5 H :    0.172784
   6 H :    0.127428
   7 H :    0.144651

-------------------------------
LOEWDIN REDUCED ORBITAL CHARGES
-------------------------------
  0 C s       :     3.041359  s :     3.041359
      pz      :     1.133738  p :     3.271783
      px      :     1.002567
      py      :     1.135478
  1 C s       :     3.038548  s :     3.038548
      pz      :     1.344790  p :     3.414435
      px      :     0.998708
      py      :     1.070937
  2 H s       :     0.891191  s :     0.891191
  3 H s       :     0.896060  s :     0.896060
  4 H s       :     0.891487  s :     0.891487
  5 H s       :     0.827216  s :     0.827216
  6 H s       :     0.872572  s :     0.872572
  7 H s       :     0.855349  s :     0.855349


                      *****************************
                      * MAYER POPULATION ANALYSIS *
                      *****************************

  NA   - Mulliken gross atomic population
  ZA   - Total nuclear charge
  QA   - Mulliken gross atomic charge
  VA   - Mayer's total valence
  BVA  - Mayer's bonded valence
  FA   - Mayer's free valence

  ATOM       NA         ZA         QA         VA         BVA        FA
  0 C      6.4391     6.0000    -0.4391     3.8291     3.8291    -0.0000
  1 C      6.4746     6.0000    -0.4746     3.7248     3.7248    -0.0000
  2 H      0.8483     1.0000     0.1517     0.9335     0.9335    -0.0000
  3 H      0.8535     1.0000     0.1465     0.9301     0.9301     0.0000
  4 H      0.8444     1.0000     0.1556     0.9299     0.9299    -0.0000
  5 H      0.8434     1.0000     0.1566     0.9175     0.9175     0.0000
  6 H      0.8921     1.0000     0.1079     0.8848     0.8848    -0.0000
  7 H      0.8046     1.0000     0.1954     0.9370     0.9370     0.0000

  Mayer bond orders larger than 0.1
B(  0-C ,  1-C ) :   0.9754 B(  0-C ,  2-H ) :   0.9555 B(  0-C ,  3-H ) :   0.9522 
B(  0-C ,  4-H ) :   0.9527 B(  1-C ,  5-H ) :   0.9160 B(  1-C ,  6-H ) :   0.9016 
B(  1-C ,  7-H ) :   0.9439 

-------
TIMINGS
-------

Total SCF time: 0 days 0 hours 0 min 2 sec 

Total time                  ....       2.283 sec
Sum of individual times     ....       2.276 sec  ( 99.7%)

Fock matrix formation       ....       2.027 sec  ( 88.8%)
Diagonalization             ....       0.004 sec  (  0.2%)
Density matrix formation    ....       0.000 sec  (  0.0%)
Population analysis         ....       0.001 sec  (  0.0%)
Initial guess               ....       0.180 sec  (  7.9%)
Orbital Transformation      ....       0.000 sec  (  0.0%)
Orbital Orthonormalization  ....       0.000 sec  (  0.0%)
DIIS solution               ....       0.001 sec  (  0.1%)
SOSCF solution              ....       0.003 sec  (  0.1%)

-------------------------   --------------------
FINAL SINGLE POINT ENERGY       -79.031982712442
-------------------------   --------------------


                            ***************************************
                            *     ORCA property calculations      *
                            ***************************************

                                    ---------------------
                                    Active property flags
                                    ---------------------
   (+) Dipole Moment


------------------------------------------------------------------------------
                       ORCA ELECTRIC PROPERTIES CALCULATION
------------------------------------------------------------------------------

Dipole Moment Calculation                       ... on
Quadrupole Moment Calculation                   ... off
Polarizability Calculation                      ... off
GBWName                                         ... ./task4/1.92986.gbw
Electron density file                           ... ./task4/1.92986.scfp.tmp
The origin for moment calculation is the CENTER OF MASS  = ( 1.823453, -0.032022 -0.055464)

-------------
DIPOLE MOMENT
-------------
                                X             Y             Z
Electronic contribution:      0.03523       0.24665       0.34953
Nuclear contribution   :     -0.00000      -0.37886      -0.65621
                        -----------------------------------------
Total Dipole Moment    :      0.03523      -0.13221      -0.30668
                        -----------------------------------------
Magnitude (a.u.)       :      0.33582
Magnitude (Debye)      :      0.85359


Timings for individual modules:

Sum of individual times         ...        2.721 sec (=   0.045 min)
GTO integral calculation        ...        0.407 sec (=   0.007 min)  15.0 %
SCF iterations                  ...        2.314 sec (=   0.039 min)  85.0 %
                             ****ORCA TERMINATED NORMALLY****
TOTAL RUN TIME: 0 days 0 hours 0 minutes 2 seconds 904 msec
