
                                 *****************
                                 * O   R   C   A *
                                 *****************

           --- An Ab Initio, DFT and Semiempirical electronic structure package ---

                  #######################################################
                  #                        -***-                        #
                  #  Department of molecular theory and spectroscopy    #
                  #              Directorship: Frank Neese              #
                  # Max Planck Institute for Chemical Energy Conversion #
                  #                  D-45470 Muelheim/Ruhr              #
                  #                       Germany                       #
                  #                                                     #
                  #                  All rights reserved                #
                  #                        -***-                        #
                  #######################################################


                         Program Version 4.0.1.2 - RELEASE -


 With contributions from (in alphabetic order):
   Daniel Aravena         : Magnetic Properties
   Michael Atanasov       : Ab Initio Ligand Field Theory
   Ute Becker             : Parallelization
   Martin Brehm           : Molecular dynamics
   Dmytro Bykov           : SCF Hessian
   Vijay G. Chilkuri      : MRCI spin determinant printing
   Dipayan Datta          : RHF DLPNO-CCSD density
   Achintya Kumar Dutta   : EOM-CC, STEOM-CC
   Dmitry Ganyushin       : Spin-Orbit,Spin-Spin,Magnetic field MRCI
   Yang Guo               : DLPNO-NEVPT2, CIM, IAO-localization
   Andreas Hansen         : Spin unrestricted coupled pair/coupled cluster methods
   Lee Huntington         : MR-EOM, pCC
   Robert Izsak           : Overlap fitted RIJCOSX, COSX-SCS-MP3, EOM
   Christian Kollmar      : KDIIS, OOCD, Brueckner-CCSD(T), CCSD density
   Simone Kossmann        : Meta GGA functionals, TD-DFT gradient, OOMP2, MP2 Hessian
   Martin Krupicka        : AUTO-CI
   Dagmar Lenk            : GEPOL surface
   Dimitrios Liakos       : Extrapolation schemes; parallel MDCI
   Dimitrios Manganas     : ROCIS; embedding schemes
   Dimitrios Pantazis     : SARC Basis sets
   Taras Petrenko         : DFT Hessian,TD-DFT gradient, ASA, ECA, R-Raman, ABS, FL, XAS/XES, NRVS
   Peter Pinski           : DLPNO-MP2
   Christoph Reimann      : Effective Core Potentials
   Marius Retegan         : Local ZFS, SOC
   Christoph Riplinger    : Optimizer, TS searches, QM/MM, DLPNO-CCSD(T), (RO)-DLPNO pert. Triples
   Tobias Risthaus        : Range-separated hybrids, TD-DFT gradient, RPA, STAB
   Michael Roemelt        : Restricted open shell CIS
   Masaaki Saitow         : Open-shell DLPNO
   Barbara Sandhoefer     : DKH picture change effects
   Kantharuban Sivalingam : CASSCF convergence, NEVPT2, FIC-MRCI
   Georgi Stoychev        : AutoAux
   Boris Wezisla          : Elementary symmetry handling
   Frank Wennmohs         : Technical directorship


 We gratefully acknowledge several colleagues who have allowed us to
 interface, adapt or use parts of their codes:
   Stefan Grimme, W. Hujo, H. Kruse,             : VdW corrections, initial TS optimization,
                  C. Bannwarth                     DFT functionals, gCP, sTDA/sTD-DF
   Ed Valeev                                     : LibInt (2-el integral package), F12 methods
   Garnet Chan, S. Sharma, J. Yang, R. Olivares  : DMRG
   Ulf Ekstrom                                   : XCFun DFT Library
   Mihaly Kallay                                 : mrcc  (arbitrary order and MRCC methods)
   Andreas Klamt, Michael Diedenhofen            : otool_cosmo (COSMO solvation model)
   Jiri Pittner, Ondrej Demel                    : Mk-CCSD
   Frank Weinhold                                : gennbo (NPA and NBO analysis)
   Christopher J. Cramer and Donald G. Truhlar   : smd solvation model


 Your calculation uses the libint2 library for the computation of 2-el integrals
 For citations please refer to: http://libint.valeyev.net

 This ORCA versions uses:
   CBLAS   interface :  Fast vector & matrix operations
   LAPACKE interface :  Fast linear algebra routines
   SCALAPACK package :  Parallel linear algebra routines


Your calculation utilizes the basis: 6-31G
   H-He, Li-Ne : W. J. Hehre, R. Ditchfield and J.A. Pople, J. Chem. Phys. 56, 2257 (1972).
                 Note: He and Ne are unpublished basis sets taken from the Gaussian program.
                 Note: Li and B from J. D. Dill and J. A. Pople, J. Chem. Phys. 62, 2921 (1975).
   Na - Ar     : M. M. Francl, W. J. Pietro, W. J. Hehre, J. S. Binkley, M. S. Gordon, 
                 D. J. DeFrees and J. A. Pople, J. Chem. Phys. 77, 3654 (1982).
   K - Zn      : V. A. Rassolov, J. A. Pople, M. A. Ratner, and T. L. Windus, J. Chem. Phys. 109, 1223 (1998).

================================================================================
                                        WARNINGS
                       Please study these warnings very carefully!
================================================================================

Warning: TCutStore was < 0. Adjusted to Thresh (uncritical)

INFO   : the flag for use of LIBINT has been found!

================================================================================
                                       INPUT FILE
================================================================================
NAME = ./task4/2.02986.zm
|  1> !HF RHF 6-31G
|  2>     * int 0 1
|  3>     C 0 0 0 0 0 0 
|  4>     C 1 0 0 2.02986 0 0 
|  5>     H 1 2 0 1.08439 111.2 0
|  6>     H 1 2 3 1.08439 111.2 120
|  7>     H 1 2 3 1.08439 111.2 -120
|  8>     H 2 1 3 1.08439 111.2 180
|  9>     H 2 1 5 1.08439 111.2 120
| 10>     H 2 1 5 1.08439 111.2 240
| 11>     *
| 12>     
| 13> 
| 14>                          ****END OF INPUT****
================================================================================

                       ****************************
                       * Single Point Calculation *
                       ****************************

---------------------------------
CARTESIAN COORDINATES (ANGSTROEM)
---------------------------------
  C      0.000000    0.000000    0.000000
  C      2.029860    0.000000    0.000000
  H     -0.392142    1.011003    0.000000
  H     -0.392142   -0.505501   -0.875554
  H     -0.392142   -0.505501    0.875554
  H      2.422002   -1.011003    0.000000
  H      2.422002   -0.505501   -0.875554
  H      2.422002    1.011003   -0.000000

----------------------------
CARTESIAN COORDINATES (A.U.)
----------------------------
  NO LB      ZA    FRAG     MASS         X           Y           Z
   0 C     6.0000    0    12.011    0.000000    0.000000    0.000000
   1 C     6.0000    0    12.011    3.835879    0.000000    0.000000
   2 H     1.0000    0     1.008   -0.741041    1.910518    0.000000
   3 H     1.0000    0     1.008   -0.741041   -0.955259   -1.654557
   4 H     1.0000    0     1.008   -0.741041   -0.955259    1.654557
   5 H     1.0000    0     1.008    4.576921   -1.910518    0.000000
   6 H     1.0000    0     1.008    4.576921   -0.955259   -1.654557
   7 H     1.0000    0     1.008    4.576921    1.910518   -0.000000

--------------------------------
INTERNAL COORDINATES (ANGSTROEM)
--------------------------------
 C      0   0   0     0.000000000000     0.00000000     0.00000000
 C      1   0   0     2.029860000000     0.00000000     0.00000000
 H      1   2   0     1.084390000000   111.20000000     0.00000000
 H      1   2   3     1.084390000000   111.20000000   120.00000000
 H      1   2   3     1.084390000000   111.20000000  -120.00000000
 H      2   1   3     1.084390000000   111.20000000   180.00000000
 H      2   1   5     1.084390000000   111.20000000   120.00000000
 H      2   1   5     1.084390000000   111.20000000   240.00000000

---------------------------
INTERNAL COORDINATES (A.U.)
---------------------------
 C      0   0   0     0.000000000000     0.00000000     0.00000000
 C      1   0   0     3.835879490201     0.00000000     0.00000000
 H      1   2   0     2.049200122363   111.20000000     0.00000000
 H      1   2   3     2.049200122363   111.20000000   120.00000000
 H      1   2   3     2.049200122363   111.20000000  -120.00000000
 H      2   1   3     2.049200122363   111.20000000   180.00000000
 H      2   1   5     2.049200122363   111.20000000   120.00000000
 H      2   1   5     2.049200122363   111.20000000   240.00000000

---------------------
BASIS SET INFORMATION
---------------------
There are 2 groups of distinct atoms

 Group   1 Type C   : 10s4p contracted to 3s2p pattern {631/31}
 Group   2 Type H   : 4s contracted to 2s pattern {31}

Atom   0C    basis set group =>   1
Atom   1C    basis set group =>   1
Atom   2H    basis set group =>   2
Atom   3H    basis set group =>   2
Atom   4H    basis set group =>   2
Atom   5H    basis set group =>   2
Atom   6H    basis set group =>   2
Atom   7H    basis set group =>   2
------------------------------------------------------------------------------
                           ORCA GTO INTEGRAL CALCULATION
------------------------------------------------------------------------------

                         BASIS SET STATISTICS AND STARTUP INFO

 # of primitive gaussian shells          ...   52
 # of primitive gaussian functions       ...   68
 # of contracted shells                  ...   22
 # of contracted basis functions         ...   30
 Highest angular momentum                ...    1
 Maximum contraction depth               ...    6
 Integral package used                   ... LIBINT
 Integral threshhold            Thresh   ...  1.000e-10
 Primitive cut-off              TCut     ...  1.000e-11


------------------------------ INTEGRAL EVALUATION ----------------------------


 * One electron integrals 
 Pre-screening matrix                    ... done
 Shell pair data                         ... done (   0.000 sec)

-------------------------------------------------------------------------------
                                 ORCA SCF
-------------------------------------------------------------------------------

------------
SCF SETTINGS
------------
Hamiltonian:
 Ab initio Hamiltonian  Method          .... Hartree-Fock(GTOs)


General Settings:
 Integral files         IntName         .... ./task4/2.02986
 Hartree-Fock type      HFTyp           .... RHF
 Total Charge           Charge          ....    0
 Multiplicity           Mult            ....    1
 Number of Electrons    NEL             ....   18
 Basis Dimension        Dim             ....   30
 Nuclear Repulsion      ENuc            ....     37.7267197473 Eh

Convergence Acceleration:
 DIIS                   CNVDIIS         .... on
   Start iteration      DIISMaxIt       ....    12
   Startup error        DIISStart       ....  0.200000
   # of expansion vecs  DIISMaxEq       ....     5
   Bias factor          DIISBfac        ....   1.050
   Max. coefficient     DIISMaxC        ....  10.000
 Newton-Raphson         CNVNR           .... off
 SOSCF                  CNVSOSCF        .... on
   Start iteration      SOSCFMaxIt      ....   150
   Startup grad/error   SOSCFStart      ....  0.003300
 Level Shifting         CNVShift        .... on
   Level shift para.    LevelShift      ....    0.2500
   Turn off err/grad.   ShiftErr        ....    0.0010
 Zerner damping         CNVZerner       .... off
 Static damping         CNVDamp         .... on
   Fraction old density DampFac         ....    0.7000
   Max. Damping (<1)    DampMax         ....    0.9800
   Min. Damping (>=0)   DampMin         ....    0.0000
   Turn off err/grad.   DampErr         ....    0.1000
 Fernandez-Rico         CNVRico         .... off

SCF Procedure:
 Maximum # iterations   MaxIter         ....   125
 SCF integral mode      SCFMode         .... Direct
   Integral package                     .... LIBINT
 Reset frequeny         DirectResetFreq ....    20
 Integral Threshold     Thresh          ....  1.000e-10 Eh
 Primitive CutOff       TCut            ....  1.000e-11 Eh

Convergence Tolerance:
 Convergence Check Mode ConvCheckMode   .... Total+1el-Energy
 Convergence forced     ConvForced      .... 0
 Energy Change          TolE            ....  1.000e-06 Eh
 1-El. energy change                    ....  1.000e-03 Eh
 Orbital Gradient       TolG            ....  5.000e-05
 Orbital Rotation angle TolX            ....  5.000e-05
 DIIS Error             TolErr          ....  1.000e-06


Diagonalization of the overlap matrix:
Smallest eigenvalue                        ... 1.980e-02
Time for diagonalization                   ...    0.001 sec
Threshold for overlap eigenvalues          ... 1.000e-08
Number of eigenvalues below threshold      ... 0
Time for construction of square roots      ...    0.000 sec
Total time needed                          ...    0.001 sec

-------------------
DFT GRID GENERATION
-------------------

General Integration Accuracy     IntAcc      ...  4.340
Radial Grid Type                 RadialGrid  ... Gauss-Chebyshev
Angular Grid (max. acc.)         AngularGrid ... Lebedev-110
Angular grid pruning method      GridPruning ... 3 (G Style)
Weight generation scheme         WeightScheme... Becke
Basis function cutoff            BFCut       ...    1.0000e-10
Integration weight cutoff        WCut        ...    1.0000e-14
Grids for H and He will be reduced by one unit

# of grid points (after initial pruning)     ...   8076 (   0.0 sec)
# of grid points (after weights+screening)   ...   7800 (   0.0 sec)
nearest neighbour list constructed           ...    0.0 sec
Grid point re-assignment to atoms done       ...    0.0 sec
Grid point division into batches done        ...    0.0 sec
Reduced shell lists constructed in    0.0 sec

Total number of grid points                  ...     7800
Total number of batches                      ...      127
Average number of points per batch           ...       61
Average number of grid points per atom       ...      975
Average number of shells per batch           ...    19.30 (87.71%)
Average number of basis functions per batch  ...    26.84 (89.48%)
Average number of large shells per batch     ...    16.81 (87.13%)
Average number of large basis fcns per batch ...    23.98 (89.35%)
Maximum spatial batch extension              ...  21.01, 19.88, 21.59 au
Average spatial batch extension              ...   4.82,  4.26,  4.62 au

Time for grid setup =    0.064 sec

------------------------------
INITIAL GUESS: MODEL POTENTIAL
------------------------------
Loading Hartree-Fock densities                     ... done
Calculating cut-offs                               ... done
Setting up the integral package                    ... done
Initializing the effective Hamiltonian             ... done
Starting the Coulomb interaction                   ... done (   0.0 sec)
Reading the grid                                   ... done
Mapping shells                                     ... done
Starting the XC term evaluation                    ... done (   0.0 sec)
Transforming the Hamiltonian                       ... done (   0.0 sec)
Diagonalizing the Hamiltonian                      ... done (   0.0 sec)
Back transforming the eigenvectors                 ... done (   0.0 sec)
Now organizing SCF variables                       ... done
                      ------------------
                      INITIAL GUESS DONE (   0.2 sec)
                      ------------------
--------------
SCF ITERATIONS
--------------
ITER       Energy         Delta-E        Max-DP      RMS-DP      [F,P]     Damp
               ***  Starting incremental Fock matrix formation  ***
  0    -78.8900815050   0.000000000000 0.05966868  0.00559978  0.1874257 0.7000
  1    -78.9347072388  -0.044625733761 0.04648621  0.00462039  0.1229397 0.7000
                               ***Turning on DIIS***
  2    -78.9615009507  -0.026793711913 0.09883113  0.01018438  0.0734691 0.0000
  3    -78.8165937826   0.144907168061 0.02131296  0.00237929  0.0322382 0.0000
  4    -78.9853479966  -0.168754214009 0.00332503  0.00045771  0.0042805 0.0000
                      *** Initiating the SOSCF procedure ***
                           *** Shutting down DIIS ***
                      *** Re-Reading the Fockian *** 
                      *** Removing any level shift *** 
ITER      Energy       Delta-E        Grad      Rot      Max-DP    RMS-DP
  5    -79.00754501  -0.0221970147  0.000596  0.000596  0.001236  0.000190
               *** Restarting incremental Fock matrix formation ***
  6    -79.01302141  -0.0054763964  0.000287  0.000435  0.000729  0.000108
  7    -79.01302317  -0.0000017609  0.000132  0.000395  0.000672  0.000079
                 **** Energy Check signals convergence ****
              ***Rediagonalizing the Fockian in SOSCF/NRSCF***

               *****************************************************
               *                     SUCCESS                       *
               *           SCF CONVERGED AFTER   8 CYCLES          *
               *****************************************************


----------------
TOTAL SCF ENERGY
----------------

Total Energy       :          -79.01302354 Eh           -2150.05368 eV

Components:
Nuclear Repulsion  :           37.72671975 Eh            1026.59624 eV
Electronic Energy  :         -116.73974329 Eh           -3176.64991 eV
One Electron Energy:         -179.67655154 Eh           -4889.24753 eV
Two Electron Energy:           62.93680826 Eh            1712.59762 eV

Virial components:
Potential Energy   :         -157.83543008 Eh           -4294.92040 eV
Kinetic Energy     :           78.82240654 Eh            2144.86672 eV
Virial Ratio       :            2.00241831


---------------
SCF CONVERGENCE
---------------

  Last Energy change         ...   -3.6996e-07  Tolerance :   1.0000e-06
  Last MAX-Density change    ...    6.8475e-05  Tolerance :   1.0000e-05
  Last RMS-Density change    ...    8.8338e-06  Tolerance :   1.0000e-06
  Last Orbital Gradient      ...    2.6660e-05  Tolerance :   5.0000e-05
  Last Orbital Rotation      ...    2.7455e-05  Tolerance :   5.0000e-05

             **** THE GBW FILE WAS UPDATED (./task4/2.02986.gbw) ****
             **** DENSITY FILE WAS UPDATED (./task4/2.02986.scfp.tmp) ****
             **** ENERGY FILE WAS UPDATED (./task4/2.02986.en.tmp) ****
----------------
ORBITAL ENERGIES
----------------

  NO   OCC          E(Eh)            E(eV) 
   0   2.0000     -11.246072      -306.0212 
   1   2.0000     -11.243789      -305.9591 
   2   2.0000      -0.981912       -26.7192 
   3   2.0000      -0.905512       -24.6402 
   4   2.0000      -0.634563       -17.2673 
   5   2.0000      -0.546089       -14.8598 
   6   2.0000      -0.540611       -14.7108 
   7   2.0000      -0.420149       -11.4328 
   8   2.0000      -0.382985       -10.4216 
   9   0.0000       0.201586         5.4854 
  10   0.0000       0.234831         6.3901 
  11   0.0000       0.278301         7.5730 
  12   0.0000       0.299524         8.1505 
  13   0.0000       0.324046         8.8177 
  14   0.0000       0.348818         9.4918 
  15   0.0000       0.355139         9.6638 
  16   0.0000       0.699720        19.0404 
  17   0.0000       0.726552        19.7705 
  18   0.0000       0.773913        21.0592 
  19   0.0000       0.872312        23.7368 
  20   0.0000       0.904083        24.6014 
  21   0.0000       1.032716        28.1016 
  22   0.0000       1.079086        29.3634 
  23   0.0000       1.165113        31.7043 
  24   0.0000       1.212465        32.9928 
  25   0.0000       1.223811        33.3016 
  26   0.0000       1.231688        33.5159 
  27   0.0000       1.274293        34.6753 
  28   0.0000       1.288689        35.0670 
  29   0.0000       1.482292        40.3352 

                    ********************************
                    * MULLIKEN POPULATION ANALYSIS *
                    ********************************

-----------------------
MULLIKEN ATOMIC CHARGES
-----------------------
   0 C :   -0.434963
   1 C :   -0.469511
   2 H :    0.150408
   3 H :    0.145759
   4 H :    0.154249
   5 H :    0.155872
   6 H :    0.104321
   7 H :    0.193864
Sum of atomic charges:   -0.0000000

--------------------------------
MULLIKEN REDUCED ORBITAL CHARGES
--------------------------------
  0 C s       :     3.376962  s :     3.376962
      pz      :     1.053690  p :     3.058001
      px      :     0.944097
      py      :     1.060214
  1 C s       :     3.339745  s :     3.339745
      pz      :     1.228146  p :     3.129766
      px      :     0.936948
      py      :     0.964671
  2 H s       :     0.849592  s :     0.849592
  3 H s       :     0.854241  s :     0.854241
  4 H s       :     0.845751  s :     0.845751
  5 H s       :     0.844128  s :     0.844128
  6 H s       :     0.895679  s :     0.895679
  7 H s       :     0.806136  s :     0.806136


                     *******************************
                     * LOEWDIN POPULATION ANALYSIS *
                     *******************************

----------------------
LOEWDIN ATOMIC CHARGES
----------------------
   0 C :   -0.312503
   1 C :   -0.454499
   2 H :    0.108720
   3 H :    0.104376
   4 H :    0.108970
   5 H :    0.173453
   6 H :    0.126510
   7 H :    0.144973

-------------------------------
LOEWDIN REDUCED ORBITAL CHARGES
-------------------------------
  0 C s       :     3.052231  s :     3.052231
      pz      :     1.133243  p :     3.260272
      px      :     0.992332
      py      :     1.134697
  1 C s       :     3.051065  s :     3.051065
      pz      :     1.344851  p :     3.403434
      px      :     0.989402
      py      :     1.069181
  2 H s       :     0.891280  s :     0.891280
  3 H s       :     0.895624  s :     0.895624
  4 H s       :     0.891030  s :     0.891030
  5 H s       :     0.826547  s :     0.826547
  6 H s       :     0.873490  s :     0.873490
  7 H s       :     0.855027  s :     0.855027


                      *****************************
                      * MAYER POPULATION ANALYSIS *
                      *****************************

  NA   - Mulliken gross atomic population
  ZA   - Total nuclear charge
  QA   - Mulliken gross atomic charge
  VA   - Mayer's total valence
  BVA  - Mayer's bonded valence
  FA   - Mayer's free valence

  ATOM       NA         ZA         QA         VA         BVA        FA
  0 C      6.4350     6.0000    -0.4350     3.8346     3.8346    -0.0000
  1 C      6.4695     6.0000    -0.4695     3.7295     3.7295     0.0000
  2 H      0.8496     1.0000     0.1504     0.9339     0.9339    -0.0000
  3 H      0.8542     1.0000     0.1458     0.9309     0.9309     0.0000
  4 H      0.8458     1.0000     0.1542     0.9312     0.9312    -0.0000
  5 H      0.8441     1.0000     0.1559     0.9172     0.9172     0.0000
  6 H      0.8957     1.0000     0.1043     0.8855     0.8855     0.0000
  7 H      0.8061     1.0000     0.1939     0.9377     0.9377     0.0000

  Mayer bond orders larger than 0.1
B(  0-C ,  1-C ) :   0.9786 B(  0-C ,  2-H ) :   0.9544 B(  0-C ,  3-H ) :   0.9513 
B(  0-C ,  4-H ) :   0.9522 B(  1-C ,  5-H ) :   0.9141 B(  1-C ,  6-H ) :   0.9018 
B(  1-C ,  7-H ) :   0.9419 

-------
TIMINGS
-------

Total SCF time: 0 days 0 hours 0 min 2 sec 

Total time                  ....       2.236 sec
Sum of individual times     ....       2.230 sec  ( 99.7%)

Fock matrix formation       ....       1.982 sec  ( 88.7%)
Diagonalization             ....       0.003 sec  (  0.1%)
Density matrix formation    ....       0.000 sec  (  0.0%)
Population analysis         ....       0.001 sec  (  0.0%)
Initial guess               ....       0.177 sec  (  7.9%)
Orbital Transformation      ....       0.000 sec  (  0.0%)
Orbital Orthonormalization  ....       0.000 sec  (  0.0%)
DIIS solution               ....       0.001 sec  (  0.0%)
SOSCF solution              ....       0.002 sec  (  0.1%)

-------------------------   --------------------
FINAL SINGLE POINT ENERGY       -79.013023538635
-------------------------   --------------------


                            ***************************************
                            *     ORCA property calculations      *
                            ***************************************

                                    ---------------------
                                    Active property flags
                                    ---------------------
   (+) Dipole Moment


------------------------------------------------------------------------------
                       ORCA ELECTRIC PROPERTIES CALCULATION
------------------------------------------------------------------------------

Dipole Moment Calculation                       ... on
Quadrupole Moment Calculation                   ... off
Polarizability Calculation                      ... off
GBWName                                         ... ./task4/2.02986.gbw
Electron density file                           ... ./task4/2.02986.scfp.tmp
The origin for moment calculation is the CENTER OF MASS  = ( 1.917940, -0.032022 -0.055464)

-------------
DIPOLE MOMENT
-------------
                                X             Y             Z
Electronic contribution:      0.02941       0.24832       0.34855
Nuclear contribution   :      0.00000      -0.37886      -0.65621
                        -----------------------------------------
Total Dipole Moment    :      0.02941      -0.13055      -0.30766
                        -----------------------------------------
Magnitude (a.u.)       :      0.33550
Magnitude (Debye)      :      0.85278


Timings for individual modules:

Sum of individual times         ...        2.608 sec (=   0.043 min)
GTO integral calculation        ...        0.350 sec (=   0.006 min)  13.4 %
SCF iterations                  ...        2.258 sec (=   0.038 min)  86.6 %
                             ****ORCA TERMINATED NORMALLY****
TOTAL RUN TIME: 0 days 0 hours 0 minutes 2 seconds 791 msec
