
                                 *****************
                                 * O   R   C   A *
                                 *****************

           --- An Ab Initio, DFT and Semiempirical electronic structure package ---

                  #######################################################
                  #                        -***-                        #
                  #  Department of molecular theory and spectroscopy    #
                  #              Directorship: Frank Neese              #
                  # Max Planck Institute for Chemical Energy Conversion #
                  #                  D-45470 Muelheim/Ruhr              #
                  #                       Germany                       #
                  #                                                     #
                  #                  All rights reserved                #
                  #                        -***-                        #
                  #######################################################


                         Program Version 4.0.1.2 - RELEASE -


 With contributions from (in alphabetic order):
   Daniel Aravena         : Magnetic Properties
   Michael Atanasov       : Ab Initio Ligand Field Theory
   Ute Becker             : Parallelization
   Martin Brehm           : Molecular dynamics
   Dmytro Bykov           : SCF Hessian
   Vijay G. Chilkuri      : MRCI spin determinant printing
   Dipayan Datta          : RHF DLPNO-CCSD density
   Achintya Kumar Dutta   : EOM-CC, STEOM-CC
   Dmitry Ganyushin       : Spin-Orbit,Spin-Spin,Magnetic field MRCI
   Yang Guo               : DLPNO-NEVPT2, CIM, IAO-localization
   Andreas Hansen         : Spin unrestricted coupled pair/coupled cluster methods
   Lee Huntington         : MR-EOM, pCC
   Robert Izsak           : Overlap fitted RIJCOSX, COSX-SCS-MP3, EOM
   Christian Kollmar      : KDIIS, OOCD, Brueckner-CCSD(T), CCSD density
   Simone Kossmann        : Meta GGA functionals, TD-DFT gradient, OOMP2, MP2 Hessian
   Martin Krupicka        : AUTO-CI
   Dagmar Lenk            : GEPOL surface
   Dimitrios Liakos       : Extrapolation schemes; parallel MDCI
   Dimitrios Manganas     : ROCIS; embedding schemes
   Dimitrios Pantazis     : SARC Basis sets
   Taras Petrenko         : DFT Hessian,TD-DFT gradient, ASA, ECA, R-Raman, ABS, FL, XAS/XES, NRVS
   Peter Pinski           : DLPNO-MP2
   Christoph Reimann      : Effective Core Potentials
   Marius Retegan         : Local ZFS, SOC
   Christoph Riplinger    : Optimizer, TS searches, QM/MM, DLPNO-CCSD(T), (RO)-DLPNO pert. Triples
   Tobias Risthaus        : Range-separated hybrids, TD-DFT gradient, RPA, STAB
   Michael Roemelt        : Restricted open shell CIS
   Masaaki Saitow         : Open-shell DLPNO
   Barbara Sandhoefer     : DKH picture change effects
   Kantharuban Sivalingam : CASSCF convergence, NEVPT2, FIC-MRCI
   Georgi Stoychev        : AutoAux
   Boris Wezisla          : Elementary symmetry handling
   Frank Wennmohs         : Technical directorship


 We gratefully acknowledge several colleagues who have allowed us to
 interface, adapt or use parts of their codes:
   Stefan Grimme, W. Hujo, H. Kruse,             : VdW corrections, initial TS optimization,
                  C. Bannwarth                     DFT functionals, gCP, sTDA/sTD-DF
   Ed Valeev                                     : LibInt (2-el integral package), F12 methods
   Garnet Chan, S. Sharma, J. Yang, R. Olivares  : DMRG
   Ulf Ekstrom                                   : XCFun DFT Library
   Mihaly Kallay                                 : mrcc  (arbitrary order and MRCC methods)
   Andreas Klamt, Michael Diedenhofen            : otool_cosmo (COSMO solvation model)
   Jiri Pittner, Ondrej Demel                    : Mk-CCSD
   Frank Weinhold                                : gennbo (NPA and NBO analysis)
   Christopher J. Cramer and Donald G. Truhlar   : smd solvation model


 Your calculation uses the libint2 library for the computation of 2-el integrals
 For citations please refer to: http://libint.valeyev.net

 This ORCA versions uses:
   CBLAS   interface :  Fast vector & matrix operations
   LAPACKE interface :  Fast linear algebra routines
   SCALAPACK package :  Parallel linear algebra routines


Your calculation utilizes the basis: 6-31G
   H-He, Li-Ne : W. J. Hehre, R. Ditchfield and J.A. Pople, J. Chem. Phys. 56, 2257 (1972).
                 Note: He and Ne are unpublished basis sets taken from the Gaussian program.
                 Note: Li and B from J. D. Dill and J. A. Pople, J. Chem. Phys. 62, 2921 (1975).
   Na - Ar     : M. M. Francl, W. J. Pietro, W. J. Hehre, J. S. Binkley, M. S. Gordon, 
                 D. J. DeFrees and J. A. Pople, J. Chem. Phys. 77, 3654 (1982).
   K - Zn      : V. A. Rassolov, J. A. Pople, M. A. Ratner, and T. L. Windus, J. Chem. Phys. 109, 1223 (1998).

================================================================================
                                        WARNINGS
                       Please study these warnings very carefully!
================================================================================

Warning: TCutStore was < 0. Adjusted to Thresh (uncritical)

INFO   : the flag for use of LIBINT has been found!

================================================================================
                                       INPUT FILE
================================================================================
NAME = ./task4/2.12986.zm
|  1> !HF RHF 6-31G
|  2>     * int 0 1
|  3>     C 0 0 0 0 0 0 
|  4>     C 1 0 0 2.12986 0 0 
|  5>     H 1 2 0 1.08439 111.2 0
|  6>     H 1 2 3 1.08439 111.2 120
|  7>     H 1 2 3 1.08439 111.2 -120
|  8>     H 2 1 3 1.08439 111.2 180
|  9>     H 2 1 5 1.08439 111.2 120
| 10>     H 2 1 5 1.08439 111.2 240
| 11>     *
| 12>     
| 13> 
| 14>                          ****END OF INPUT****
================================================================================

                       ****************************
                       * Single Point Calculation *
                       ****************************

---------------------------------
CARTESIAN COORDINATES (ANGSTROEM)
---------------------------------
  C      0.000000    0.000000    0.000000
  C      2.129860    0.000000    0.000000
  H     -0.392142    1.011003    0.000000
  H     -0.392142   -0.505501   -0.875554
  H     -0.392142   -0.505501    0.875554
  H      2.522002   -1.011003    0.000000
  H      2.522002   -0.505501   -0.875554
  H      2.522002    1.011003   -0.000000

----------------------------
CARTESIAN COORDINATES (A.U.)
----------------------------
  NO LB      ZA    FRAG     MASS         X           Y           Z
   0 C     6.0000    0    12.011    0.000000    0.000000    0.000000
   1 C     6.0000    0    12.011    4.024852    0.000000    0.000000
   2 H     1.0000    0     1.008   -0.741041    1.910518    0.000000
   3 H     1.0000    0     1.008   -0.741041   -0.955259   -1.654557
   4 H     1.0000    0     1.008   -0.741041   -0.955259    1.654557
   5 H     1.0000    0     1.008    4.765893   -1.910518    0.000000
   6 H     1.0000    0     1.008    4.765893   -0.955259   -1.654557
   7 H     1.0000    0     1.008    4.765893    1.910518   -0.000000

--------------------------------
INTERNAL COORDINATES (ANGSTROEM)
--------------------------------
 C      0   0   0     0.000000000000     0.00000000     0.00000000
 C      1   0   0     2.129860000000     0.00000000     0.00000000
 H      1   2   0     1.084390000000   111.20000000     0.00000000
 H      1   2   3     1.084390000000   111.20000000   120.00000000
 H      1   2   3     1.084390000000   111.20000000  -120.00000000
 H      2   1   3     1.084390000000   111.20000000   180.00000000
 H      2   1   5     1.084390000000   111.20000000   120.00000000
 H      2   1   5     1.084390000000   111.20000000   240.00000000

---------------------------
INTERNAL COORDINATES (A.U.)
---------------------------
 C      0   0   0     0.000000000000     0.00000000     0.00000000
 C      1   0   0     4.024852103594     0.00000000     0.00000000
 H      1   2   0     2.049200122363   111.20000000     0.00000000
 H      1   2   3     2.049200122363   111.20000000   120.00000000
 H      1   2   3     2.049200122363   111.20000000  -120.00000000
 H      2   1   3     2.049200122363   111.20000000   180.00000000
 H      2   1   5     2.049200122363   111.20000000   120.00000000
 H      2   1   5     2.049200122363   111.20000000   240.00000000

---------------------
BASIS SET INFORMATION
---------------------
There are 2 groups of distinct atoms

 Group   1 Type C   : 10s4p contracted to 3s2p pattern {631/31}
 Group   2 Type H   : 4s contracted to 2s pattern {31}

Atom   0C    basis set group =>   1
Atom   1C    basis set group =>   1
Atom   2H    basis set group =>   2
Atom   3H    basis set group =>   2
Atom   4H    basis set group =>   2
Atom   5H    basis set group =>   2
Atom   6H    basis set group =>   2
Atom   7H    basis set group =>   2
------------------------------------------------------------------------------
                           ORCA GTO INTEGRAL CALCULATION
------------------------------------------------------------------------------

                         BASIS SET STATISTICS AND STARTUP INFO

 # of primitive gaussian shells          ...   52
 # of primitive gaussian functions       ...   68
 # of contracted shells                  ...   22
 # of contracted basis functions         ...   30
 Highest angular momentum                ...    1
 Maximum contraction depth               ...    6
 Integral package used                   ... LIBINT
 Integral threshhold            Thresh   ...  1.000e-10
 Primitive cut-off              TCut     ...  1.000e-11


------------------------------ INTEGRAL EVALUATION ----------------------------


 * One electron integrals 
 Pre-screening matrix                    ... done
 Shell pair data                         ... done (   0.000 sec)

-------------------------------------------------------------------------------
                                 ORCA SCF
-------------------------------------------------------------------------------

------------
SCF SETTINGS
------------
Hamiltonian:
 Ab initio Hamiltonian  Method          .... Hartree-Fock(GTOs)


General Settings:
 Integral files         IntName         .... ./task4/2.12986
 Hartree-Fock type      HFTyp           .... RHF
 Total Charge           Charge          ....    0
 Multiplicity           Mult            ....    1
 Number of Electrons    NEL             ....   18
 Basis Dimension        Dim             ....   30
 Nuclear Repulsion      ENuc            ....     36.9955514789 Eh

Convergence Acceleration:
 DIIS                   CNVDIIS         .... on
   Start iteration      DIISMaxIt       ....    12
   Startup error        DIISStart       ....  0.200000
   # of expansion vecs  DIISMaxEq       ....     5
   Bias factor          DIISBfac        ....   1.050
   Max. coefficient     DIISMaxC        ....  10.000
 Newton-Raphson         CNVNR           .... off
 SOSCF                  CNVSOSCF        .... on
   Start iteration      SOSCFMaxIt      ....   150
   Startup grad/error   SOSCFStart      ....  0.003300
 Level Shifting         CNVShift        .... on
   Level shift para.    LevelShift      ....    0.2500
   Turn off err/grad.   ShiftErr        ....    0.0010
 Zerner damping         CNVZerner       .... off
 Static damping         CNVDamp         .... on
   Fraction old density DampFac         ....    0.7000
   Max. Damping (<1)    DampMax         ....    0.9800
   Min. Damping (>=0)   DampMin         ....    0.0000
   Turn off err/grad.   DampErr         ....    0.1000
 Fernandez-Rico         CNVRico         .... off

SCF Procedure:
 Maximum # iterations   MaxIter         ....   125
 SCF integral mode      SCFMode         .... Direct
   Integral package                     .... LIBINT
 Reset frequeny         DirectResetFreq ....    20
 Integral Threshold     Thresh          ....  1.000e-10 Eh
 Primitive CutOff       TCut            ....  1.000e-11 Eh

Convergence Tolerance:
 Convergence Check Mode ConvCheckMode   .... Total+1el-Energy
 Convergence forced     ConvForced      .... 0
 Energy Change          TolE            ....  1.000e-06 Eh
 1-El. energy change                    ....  1.000e-03 Eh
 Orbital Gradient       TolG            ....  5.000e-05
 Orbital Rotation angle TolX            ....  5.000e-05
 DIIS Error             TolErr          ....  1.000e-06


Diagonalization of the overlap matrix:
Smallest eigenvalue                        ... 2.093e-02
Time for diagonalization                   ...    0.001 sec
Threshold for overlap eigenvalues          ... 1.000e-08
Number of eigenvalues below threshold      ... 0
Time for construction of square roots      ...    0.000 sec
Total time needed                          ...    0.001 sec

-------------------
DFT GRID GENERATION
-------------------

General Integration Accuracy     IntAcc      ...  4.340
Radial Grid Type                 RadialGrid  ... Gauss-Chebyshev
Angular Grid (max. acc.)         AngularGrid ... Lebedev-110
Angular grid pruning method      GridPruning ... 3 (G Style)
Weight generation scheme         WeightScheme... Becke
Basis function cutoff            BFCut       ...    1.0000e-10
Integration weight cutoff        WCut        ...    1.0000e-14
Grids for H and He will be reduced by one unit

# of grid points (after initial pruning)     ...   8076 (   0.0 sec)
# of grid points (after weights+screening)   ...   7809 (   0.0 sec)
nearest neighbour list constructed           ...    0.0 sec
Grid point re-assignment to atoms done       ...    0.0 sec
Grid point division into batches done        ...    0.0 sec
Reduced shell lists constructed in    0.0 sec

Total number of grid points                  ...     7809
Total number of batches                      ...      127
Average number of points per batch           ...       61
Average number of grid points per atom       ...      976
Average number of shells per batch           ...    19.13 (86.97%)
Average number of basis functions per batch  ...    26.68 (88.93%)
Average number of large shells per batch     ...    16.49 (86.20%)
Average number of large basis fcns per batch ...    23.52 (88.17%)
Maximum spatial batch extension              ...  21.20, 19.76, 21.59 au
Average spatial batch extension              ...   4.90,  4.30,  4.61 au

Time for grid setup =    0.061 sec

------------------------------
INITIAL GUESS: MODEL POTENTIAL
------------------------------
Loading Hartree-Fock densities                     ... done
Calculating cut-offs                               ... done
Setting up the integral package                    ... done
Initializing the effective Hamiltonian             ... done
Starting the Coulomb interaction                   ... done (   0.0 sec)
Reading the grid                                   ... done
Mapping shells                                     ... done
Starting the XC term evaluation                    ... done (   0.0 sec)
Transforming the Hamiltonian                       ... done (   0.0 sec)
Diagonalizing the Hamiltonian                      ... done (   0.0 sec)
Back transforming the eigenvectors                 ... done (   0.0 sec)
Now organizing SCF variables                       ... done
                      ------------------
                      INITIAL GUESS DONE (   0.2 sec)
                      ------------------
--------------
SCF ITERATIONS
--------------
ITER       Energy         Delta-E        Max-DP      RMS-DP      [F,P]     Damp
               ***  Starting incremental Fock matrix formation  ***
  0    -78.8733656467   0.000000000000 0.05860139  0.00551768  0.1842994 0.7000
  1    -78.9169177347  -0.043552087998 0.04569524  0.00456213  0.1209454 0.7000
                               ***Turning on DIIS***
  2    -78.9431750081  -0.026257273442 0.09717804  0.01008890  0.0722906 0.0000
  3    -78.8045712349   0.138603773222 0.02111567  0.00233052  0.0318383 0.0000
  4    -78.9667500103  -0.162178775386 0.00338946  0.00045264  0.0044153 0.0000
                      *** Initiating the SOSCF procedure ***
                           *** Shutting down DIIS ***
                      *** Re-Reading the Fockian *** 
                      *** Removing any level shift *** 
ITER      Energy       Delta-E        Grad      Rot      Max-DP    RMS-DP
  5    -78.98833608  -0.0215860738  0.000729  0.000729  0.001165  0.000189
               *** Restarting incremental Fock matrix formation ***
  6    -78.99381779  -0.0054817028  0.000273  0.000491  0.000743  0.000110
  7    -78.99381980  -0.0000020107  0.000173  0.000559  0.000692  0.000085
                 **** Energy Check signals convergence ****
              ***Rediagonalizing the Fockian in SOSCF/NRSCF***

               *****************************************************
               *                     SUCCESS                       *
               *           SCF CONVERGED AFTER   8 CYCLES          *
               *****************************************************


----------------
TOTAL SCF ENERGY
----------------

Total Energy       :          -78.99382026 Eh           -2149.53113 eV

Components:
Nuclear Repulsion  :           36.99555148 Eh            1006.70014 eV
Electronic Energy  :         -115.98937174 Eh           -3156.23126 eV
One Electron Energy:         -178.18586939 Eh           -4848.68401 eV
Two Electron Energy:           62.19649765 Eh            1692.45274 eV

Virial components:
Potential Energy   :         -157.77699796 Eh           -4293.33038 eV
Kinetic Energy     :           78.78317769 Eh            2143.79925 eV
Virial Ratio       :            2.00267370


---------------
SCF CONVERGENCE
---------------

  Last Energy change         ...   -4.6547e-07  Tolerance :   1.0000e-06
  Last MAX-Density change    ...    6.9857e-05  Tolerance :   1.0000e-05
  Last RMS-Density change    ...    1.0198e-05  Tolerance :   1.0000e-06
  Last Orbital Gradient      ...    2.9146e-05  Tolerance :   5.0000e-05
  Last Orbital Rotation      ...    3.8373e-05  Tolerance :   5.0000e-05

             **** THE GBW FILE WAS UPDATED (./task4/2.12986.gbw) ****
             **** DENSITY FILE WAS UPDATED (./task4/2.12986.scfp.tmp) ****
             **** ENERGY FILE WAS UPDATED (./task4/2.12986.en.tmp) ****
----------------
ORBITAL ENERGIES
----------------

  NO   OCC          E(Eh)            E(eV) 
   0   2.0000     -11.250918      -306.1530 
   1   2.0000     -11.248115      -306.0768 
   2   2.0000      -0.978134       -26.6164 
   3   2.0000      -0.908655       -24.7257 
   4   2.0000      -0.633970       -17.2512 
   5   2.0000      -0.546238       -14.8639 
   6   2.0000      -0.542904       -14.7732 
   7   2.0000      -0.412587       -11.2271 
   8   2.0000      -0.375105       -10.2071 
   9   0.0000       0.179207         4.8765 
  10   0.0000       0.234144         6.3714 
  11   0.0000       0.279378         7.6023 
  12   0.0000       0.294855         8.0234 
  13   0.0000       0.325742         8.8639 
  14   0.0000       0.345618         9.4048 
  15   0.0000       0.353036         9.6066 
  16   0.0000       0.691797        18.8248 
  17   0.0000       0.719288        19.5728 
  18   0.0000       0.773431        21.0461 
  19   0.0000       0.875471        23.8228 
  20   0.0000       0.914075        24.8732 
  21   0.0000       1.027519        27.9602 
  22   0.0000       1.063502        28.9394 
  23   0.0000       1.161920        31.6175 
  24   0.0000       1.207170        32.8488 
  25   0.0000       1.221868        33.2487 
  26   0.0000       1.227187        33.3935 
  27   0.0000       1.267166        34.4813 
  28   0.0000       1.281871        34.8815 
  29   0.0000       1.460015        39.7290 

                    ********************************
                    * MULLIKEN POPULATION ANALYSIS *
                    ********************************

-----------------------
MULLIKEN ATOMIC CHARGES
-----------------------
   0 C :   -0.431340
   1 C :   -0.464739
   2 H :    0.149236
   3 H :    0.144997
   4 H :    0.152973
   5 H :    0.155212
   6 H :    0.101087
   7 H :    0.192574
Sum of atomic charges:    0.0000000

--------------------------------
MULLIKEN REDUCED ORBITAL CHARGES
--------------------------------
  0 C s       :     3.379642  s :     3.379642
      pz      :     1.050497  p :     3.051698
      px      :     0.945253
      py      :     1.055948
  1 C s       :     3.346332  s :     3.346332
      pz      :     1.225213  p :     3.118408
      px      :     0.935574
      py      :     0.957621
  2 H s       :     0.850764  s :     0.850764
  3 H s       :     0.855003  s :     0.855003
  4 H s       :     0.847027  s :     0.847027
  5 H s       :     0.844788  s :     0.844788
  6 H s       :     0.898913  s :     0.898913
  7 H s       :     0.807426  s :     0.807426


                     *******************************
                     * LOEWDIN POPULATION ANALYSIS *
                     *******************************

----------------------
LOEWDIN ATOMIC CHARGES
----------------------
   0 C :   -0.312076
   1 C :   -0.455774
   2 H :    0.108701
   3 H :    0.104797
   4 H :    0.109333
   5 H :    0.174051
   6 H :    0.125612
   7 H :    0.145357

-------------------------------
LOEWDIN REDUCED ORBITAL CHARGES
-------------------------------
  0 C s       :     3.061652  s :     3.061652
      pz      :     1.132743  p :     3.250424
      px      :     0.983685
      py      :     1.133995
  1 C s       :     3.062075  s :     3.062075
      pz      :     1.344668  p :     3.393699
      px      :     0.981403
      py      :     1.067628
  2 H s       :     0.891299  s :     0.891299
  3 H s       :     0.895203  s :     0.895203
  4 H s       :     0.890667  s :     0.890667
  5 H s       :     0.825949  s :     0.825949
  6 H s       :     0.874388  s :     0.874388
  7 H s       :     0.854643  s :     0.854643


                      *****************************
                      * MAYER POPULATION ANALYSIS *
                      *****************************

  NA   - Mulliken gross atomic population
  ZA   - Total nuclear charge
  QA   - Mulliken gross atomic charge
  VA   - Mayer's total valence
  BVA  - Mayer's bonded valence
  FA   - Mayer's free valence

  ATOM       NA         ZA         QA         VA         BVA        FA
  0 C      6.4313     6.0000    -0.4313     3.8383     3.8383     0.0000
  1 C      6.4647     6.0000    -0.4647     3.7322     3.7322    -0.0000
  2 H      0.8508     1.0000     0.1492     0.9344     0.9344    -0.0000
  3 H      0.8550     1.0000     0.1450     0.9317     0.9317     0.0000
  4 H      0.8470     1.0000     0.1530     0.9324     0.9324    -0.0000
  5 H      0.8448     1.0000     0.1552     0.9171     0.9171    -0.0000
  6 H      0.8989     1.0000     0.1011     0.8861     0.8861    -0.0000
  7 H      0.8074     1.0000     0.1926     0.9384     0.9384    -0.0000

  Mayer bond orders larger than 0.1
B(  0-C ,  1-C ) :   0.9797 B(  0-C ,  2-H ) :   0.9536 B(  0-C ,  3-H ) :   0.9508 
B(  0-C ,  4-H ) :   0.9520 B(  1-C ,  5-H ) :   0.9125 B(  1-C ,  6-H ) :   0.9022 
B(  1-C ,  7-H ) :   0.9402 

-------
TIMINGS
-------

Total SCF time: 0 days 0 hours 0 min 2 sec 

Total time                  ....       2.335 sec
Sum of individual times     ....       2.315 sec  ( 99.1%)

Fock matrix formation       ....       2.065 sec  ( 88.4%)
Diagonalization             ....       0.003 sec  (  0.1%)
Density matrix formation    ....       0.000 sec  (  0.0%)
Population analysis         ....       0.001 sec  (  0.0%)
Initial guess               ....       0.179 sec  (  7.6%)
Orbital Transformation      ....       0.000 sec  (  0.0%)
Orbital Orthonormalization  ....       0.000 sec  (  0.0%)
DIIS solution               ....       0.001 sec  (  0.0%)
SOSCF solution              ....       0.005 sec  (  0.2%)

-------------------------   --------------------
FINAL SINGLE POINT ENERGY       -78.993820263120
-------------------------   --------------------


                            ***************************************
                            *     ORCA property calculations      *
                            ***************************************

                                    ---------------------
                                    Active property flags
                                    ---------------------
   (+) Dipole Moment


------------------------------------------------------------------------------
                       ORCA ELECTRIC PROPERTIES CALCULATION
------------------------------------------------------------------------------

Dipole Moment Calculation                       ... on
Quadrupole Moment Calculation                   ... off
Polarizability Calculation                      ... off
GBWName                                         ... ./task4/2.12986.gbw
Electron density file                           ... ./task4/2.12986.scfp.tmp
The origin for moment calculation is the CENTER OF MASS  = ( 2.012426, -0.032022 -0.055464)

-------------
DIPOLE MOMENT
-------------
                                X             Y             Z
Electronic contribution:      0.02453       0.24977       0.34700
Nuclear contribution   :      0.00000      -0.37886      -0.65621
                        -----------------------------------------
Total Dipole Moment    :      0.02453      -0.12910      -0.30921
                        -----------------------------------------
Magnitude (a.u.)       :      0.33598
Magnitude (Debye)      :      0.85399


Timings for individual modules:

Sum of individual times         ...        2.757 sec (=   0.046 min)
GTO integral calculation        ...        0.397 sec (=   0.007 min)  14.4 %
SCF iterations                  ...        2.360 sec (=   0.039 min)  85.6 %
                             ****ORCA TERMINATED NORMALLY****
TOTAL RUN TIME: 0 days 0 hours 0 minutes 2 seconds 940 msec
