
                                 *****************
                                 * O   R   C   A *
                                 *****************

           --- An Ab Initio, DFT and Semiempirical electronic structure package ---

                  #######################################################
                  #                        -***-                        #
                  #  Department of molecular theory and spectroscopy    #
                  #              Directorship: Frank Neese              #
                  # Max Planck Institute for Chemical Energy Conversion #
                  #                  D-45470 Muelheim/Ruhr              #
                  #                       Germany                       #
                  #                                                     #
                  #                  All rights reserved                #
                  #                        -***-                        #
                  #######################################################


                         Program Version 4.0.1.2 - RELEASE -


 With contributions from (in alphabetic order):
   Daniel Aravena         : Magnetic Properties
   Michael Atanasov       : Ab Initio Ligand Field Theory
   Ute Becker             : Parallelization
   Martin Brehm           : Molecular dynamics
   Dmytro Bykov           : SCF Hessian
   Vijay G. Chilkuri      : MRCI spin determinant printing
   Dipayan Datta          : RHF DLPNO-CCSD density
   Achintya Kumar Dutta   : EOM-CC, STEOM-CC
   Dmitry Ganyushin       : Spin-Orbit,Spin-Spin,Magnetic field MRCI
   Yang Guo               : DLPNO-NEVPT2, CIM, IAO-localization
   Andreas Hansen         : Spin unrestricted coupled pair/coupled cluster methods
   Lee Huntington         : MR-EOM, pCC
   Robert Izsak           : Overlap fitted RIJCOSX, COSX-SCS-MP3, EOM
   Christian Kollmar      : KDIIS, OOCD, Brueckner-CCSD(T), CCSD density
   Simone Kossmann        : Meta GGA functionals, TD-DFT gradient, OOMP2, MP2 Hessian
   Martin Krupicka        : AUTO-CI
   Dagmar Lenk            : GEPOL surface
   Dimitrios Liakos       : Extrapolation schemes; parallel MDCI
   Dimitrios Manganas     : ROCIS; embedding schemes
   Dimitrios Pantazis     : SARC Basis sets
   Taras Petrenko         : DFT Hessian,TD-DFT gradient, ASA, ECA, R-Raman, ABS, FL, XAS/XES, NRVS
   Peter Pinski           : DLPNO-MP2
   Christoph Reimann      : Effective Core Potentials
   Marius Retegan         : Local ZFS, SOC
   Christoph Riplinger    : Optimizer, TS searches, QM/MM, DLPNO-CCSD(T), (RO)-DLPNO pert. Triples
   Tobias Risthaus        : Range-separated hybrids, TD-DFT gradient, RPA, STAB
   Michael Roemelt        : Restricted open shell CIS
   Masaaki Saitow         : Open-shell DLPNO
   Barbara Sandhoefer     : DKH picture change effects
   Kantharuban Sivalingam : CASSCF convergence, NEVPT2, FIC-MRCI
   Georgi Stoychev        : AutoAux
   Boris Wezisla          : Elementary symmetry handling
   Frank Wennmohs         : Technical directorship


 We gratefully acknowledge several colleagues who have allowed us to
 interface, adapt or use parts of their codes:
   Stefan Grimme, W. Hujo, H. Kruse,             : VdW corrections, initial TS optimization,
                  C. Bannwarth                     DFT functionals, gCP, sTDA/sTD-DF
   Ed Valeev                                     : LibInt (2-el integral package), F12 methods
   Garnet Chan, S. Sharma, J. Yang, R. Olivares  : DMRG
   Ulf Ekstrom                                   : XCFun DFT Library
   Mihaly Kallay                                 : mrcc  (arbitrary order and MRCC methods)
   Andreas Klamt, Michael Diedenhofen            : otool_cosmo (COSMO solvation model)
   Jiri Pittner, Ondrej Demel                    : Mk-CCSD
   Frank Weinhold                                : gennbo (NPA and NBO analysis)
   Christopher J. Cramer and Donald G. Truhlar   : smd solvation model


 Your calculation uses the libint2 library for the computation of 2-el integrals
 For citations please refer to: http://libint.valeyev.net

 This ORCA versions uses:
   CBLAS   interface :  Fast vector & matrix operations
   LAPACKE interface :  Fast linear algebra routines
   SCALAPACK package :  Parallel linear algebra routines


Your calculation utilizes the basis: 6-31G
   H-He, Li-Ne : W. J. Hehre, R. Ditchfield and J.A. Pople, J. Chem. Phys. 56, 2257 (1972).
                 Note: He and Ne are unpublished basis sets taken from the Gaussian program.
                 Note: Li and B from J. D. Dill and J. A. Pople, J. Chem. Phys. 62, 2921 (1975).
   Na - Ar     : M. M. Francl, W. J. Pietro, W. J. Hehre, J. S. Binkley, M. S. Gordon, 
                 D. J. DeFrees and J. A. Pople, J. Chem. Phys. 77, 3654 (1982).
   K - Zn      : V. A. Rassolov, J. A. Pople, M. A. Ratner, and T. L. Windus, J. Chem. Phys. 109, 1223 (1998).

================================================================================
                                        WARNINGS
                       Please study these warnings very carefully!
================================================================================

Warning: TCutStore was < 0. Adjusted to Thresh (uncritical)

INFO   : the flag for use of LIBINT has been found!

================================================================================
                                       INPUT FILE
================================================================================
NAME = ./task4/2.22986.zm
|  1> !HF RHF 6-31G
|  2>     * int 0 1
|  3>     C 0 0 0 0 0 0 
|  4>     C 1 0 0 2.22986 0 0 
|  5>     H 1 2 0 1.08439 111.2 0
|  6>     H 1 2 3 1.08439 111.2 120
|  7>     H 1 2 3 1.08439 111.2 -120
|  8>     H 2 1 3 1.08439 111.2 180
|  9>     H 2 1 5 1.08439 111.2 120
| 10>     H 2 1 5 1.08439 111.2 240
| 11>     *
| 12>     
| 13> 
| 14>                          ****END OF INPUT****
================================================================================

                       ****************************
                       * Single Point Calculation *
                       ****************************

---------------------------------
CARTESIAN COORDINATES (ANGSTROEM)
---------------------------------
  C      0.000000    0.000000    0.000000
  C      2.229860    0.000000    0.000000
  H     -0.392142    1.011003    0.000000
  H     -0.392142   -0.505501   -0.875554
  H     -0.392142   -0.505501    0.875554
  H      2.622002   -1.011003    0.000000
  H      2.622002   -0.505501   -0.875554
  H      2.622002    1.011003   -0.000000

----------------------------
CARTESIAN COORDINATES (A.U.)
----------------------------
  NO LB      ZA    FRAG     MASS         X           Y           Z
   0 C     6.0000    0    12.011    0.000000    0.000000    0.000000
   1 C     6.0000    0    12.011    4.213825    0.000000    0.000000
   2 H     1.0000    0     1.008   -0.741041    1.910518    0.000000
   3 H     1.0000    0     1.008   -0.741041   -0.955259   -1.654557
   4 H     1.0000    0     1.008   -0.741041   -0.955259    1.654557
   5 H     1.0000    0     1.008    4.954866   -1.910518    0.000000
   6 H     1.0000    0     1.008    4.954866   -0.955259   -1.654557
   7 H     1.0000    0     1.008    4.954866    1.910518   -0.000000

--------------------------------
INTERNAL COORDINATES (ANGSTROEM)
--------------------------------
 C      0   0   0     0.000000000000     0.00000000     0.00000000
 C      1   0   0     2.229860000000     0.00000000     0.00000000
 H      1   2   0     1.084390000000   111.20000000     0.00000000
 H      1   2   3     1.084390000000   111.20000000   120.00000000
 H      1   2   3     1.084390000000   111.20000000  -120.00000000
 H      2   1   3     1.084390000000   111.20000000   180.00000000
 H      2   1   5     1.084390000000   111.20000000   120.00000000
 H      2   1   5     1.084390000000   111.20000000   240.00000000

---------------------------
INTERNAL COORDINATES (A.U.)
---------------------------
 C      0   0   0     0.000000000000     0.00000000     0.00000000
 C      1   0   0     4.213824716986     0.00000000     0.00000000
 H      1   2   0     2.049200122363   111.20000000     0.00000000
 H      1   2   3     2.049200122363   111.20000000   120.00000000
 H      1   2   3     2.049200122363   111.20000000  -120.00000000
 H      2   1   3     2.049200122363   111.20000000   180.00000000
 H      2   1   5     2.049200122363   111.20000000   120.00000000
 H      2   1   5     2.049200122363   111.20000000   240.00000000

---------------------
BASIS SET INFORMATION
---------------------
There are 2 groups of distinct atoms

 Group   1 Type C   : 10s4p contracted to 3s2p pattern {631/31}
 Group   2 Type H   : 4s contracted to 2s pattern {31}

Atom   0C    basis set group =>   1
Atom   1C    basis set group =>   1
Atom   2H    basis set group =>   2
Atom   3H    basis set group =>   2
Atom   4H    basis set group =>   2
Atom   5H    basis set group =>   2
Atom   6H    basis set group =>   2
Atom   7H    basis set group =>   2
------------------------------------------------------------------------------
                           ORCA GTO INTEGRAL CALCULATION
------------------------------------------------------------------------------

                         BASIS SET STATISTICS AND STARTUP INFO

 # of primitive gaussian shells          ...   52
 # of primitive gaussian functions       ...   68
 # of contracted shells                  ...   22
 # of contracted basis functions         ...   30
 Highest angular momentum                ...    1
 Maximum contraction depth               ...    6
 Integral package used                   ... LIBINT
 Integral threshhold            Thresh   ...  1.000e-10
 Primitive cut-off              TCut     ...  1.000e-11


------------------------------ INTEGRAL EVALUATION ----------------------------


 * One electron integrals 
 Pre-screening matrix                    ... done
 Shell pair data                         ... done (   0.000 sec)

-------------------------------------------------------------------------------
                                 ORCA SCF
-------------------------------------------------------------------------------

------------
SCF SETTINGS
------------
Hamiltonian:
 Ab initio Hamiltonian  Method          .... Hartree-Fock(GTOs)


General Settings:
 Integral files         IntName         .... ./task4/2.22986
 Hartree-Fock type      HFTyp           .... RHF
 Total Charge           Charge          ....    0
 Multiplicity           Mult            ....    1
 Number of Electrons    NEL             ....   18
 Basis Dimension        Dim             ....   30
 Nuclear Repulsion      ENuc            ....     36.3211966002 Eh

Convergence Acceleration:
 DIIS                   CNVDIIS         .... on
   Start iteration      DIISMaxIt       ....    12
   Startup error        DIISStart       ....  0.200000
   # of expansion vecs  DIISMaxEq       ....     5
   Bias factor          DIISBfac        ....   1.050
   Max. coefficient     DIISMaxC        ....  10.000
 Newton-Raphson         CNVNR           .... off
 SOSCF                  CNVSOSCF        .... on
   Start iteration      SOSCFMaxIt      ....   150
   Startup grad/error   SOSCFStart      ....  0.003300
 Level Shifting         CNVShift        .... on
   Level shift para.    LevelShift      ....    0.2500
   Turn off err/grad.   ShiftErr        ....    0.0010
 Zerner damping         CNVZerner       .... off
 Static damping         CNVDamp         .... on
   Fraction old density DampFac         ....    0.7000
   Max. Damping (<1)    DampMax         ....    0.9800
   Min. Damping (>=0)   DampMin         ....    0.0000
   Turn off err/grad.   DampErr         ....    0.1000
 Fernandez-Rico         CNVRico         .... off

SCF Procedure:
 Maximum # iterations   MaxIter         ....   125
 SCF integral mode      SCFMode         .... Direct
   Integral package                     .... LIBINT
 Reset frequeny         DirectResetFreq ....    20
 Integral Threshold     Thresh          ....  1.000e-10 Eh
 Primitive CutOff       TCut            ....  1.000e-11 Eh

Convergence Tolerance:
 Convergence Check Mode ConvCheckMode   .... Total+1el-Energy
 Convergence forced     ConvForced      .... 0
 Energy Change          TolE            ....  1.000e-06 Eh
 1-El. energy change                    ....  1.000e-03 Eh
 Orbital Gradient       TolG            ....  5.000e-05
 Orbital Rotation angle TolX            ....  5.000e-05
 DIIS Error             TolErr          ....  1.000e-06


Diagonalization of the overlap matrix:
Smallest eigenvalue                        ... 2.188e-02
Time for diagonalization                   ...    0.001 sec
Threshold for overlap eigenvalues          ... 1.000e-08
Number of eigenvalues below threshold      ... 0
Time for construction of square roots      ...    0.000 sec
Total time needed                          ...    0.001 sec

-------------------
DFT GRID GENERATION
-------------------

General Integration Accuracy     IntAcc      ...  4.340
Radial Grid Type                 RadialGrid  ... Gauss-Chebyshev
Angular Grid (max. acc.)         AngularGrid ... Lebedev-110
Angular grid pruning method      GridPruning ... 3 (G Style)
Weight generation scheme         WeightScheme... Becke
Basis function cutoff            BFCut       ...    1.0000e-10
Integration weight cutoff        WCut        ...    1.0000e-14
Grids for H and He will be reduced by one unit

# of grid points (after initial pruning)     ...   8076 (   0.0 sec)
# of grid points (after weights+screening)   ...   7813 (   0.0 sec)
nearest neighbour list constructed           ...    0.0 sec
Grid point re-assignment to atoms done       ...    0.0 sec
Grid point division into batches done        ...    0.0 sec
Reduced shell lists constructed in    0.1 sec

Total number of grid points                  ...     7813
Total number of batches                      ...      128
Average number of points per batch           ...       61
Average number of grid points per atom       ...      977
Average number of shells per batch           ...    18.95 (86.15%)
Average number of basis functions per batch  ...    26.47 (88.24%)
Average number of large shells per batch     ...    16.26 (85.77%)
Average number of large basis fcns per batch ...    23.12 (87.35%)
Maximum spatial batch extension              ...  21.39, 19.77, 21.59 au
Average spatial batch extension              ...   4.85,  4.32,  4.66 au

Time for grid setup =    0.070 sec

------------------------------
INITIAL GUESS: MODEL POTENTIAL
------------------------------
Loading Hartree-Fock densities                     ... done
Calculating cut-offs                               ... done
Setting up the integral package                    ... done
Initializing the effective Hamiltonian             ... done
Starting the Coulomb interaction                   ... done (   0.0 sec)
Reading the grid                                   ... done
Mapping shells                                     ... done
Starting the XC term evaluation                    ... done (   0.0 sec)
Transforming the Hamiltonian                       ... done (   0.0 sec)
Diagonalizing the Hamiltonian                      ... done (   0.0 sec)
Back transforming the eigenvectors                 ... done (   0.0 sec)
Now organizing SCF variables                       ... done
                      ------------------
                      INITIAL GUESS DONE (   0.3 sec)
                      ------------------
--------------
SCF ITERATIONS
--------------
ITER       Energy         Delta-E        Max-DP      RMS-DP      [F,P]     Damp
               ***  Starting incremental Fock matrix formation  ***
  0    -78.8561041338   0.000000000000 0.05774221  0.00545786  0.1817443 0.7000
  1    -78.8988958514  -0.042791717589 0.04504763  0.00452028  0.1192715 0.7000
                               ***Turning on DIIS***
  2    -78.9247838950  -0.025888043610 0.09577941  0.01002259  0.0712559 0.0000
  3    -78.7912672281   0.133516666953 0.02102632  0.00229491  0.0315922 0.0000
  4    -78.9482941037  -0.157026875628 0.00346965  0.00045112  0.0045569 0.0000
                      *** Initiating the SOSCF procedure ***
                           *** Shutting down DIIS ***
                      *** Re-Reading the Fockian *** 
                      *** Removing any level shift *** 
ITER      Energy       Delta-E        Grad      Rot      Max-DP    RMS-DP
  5    -78.96938848  -0.0210943776  0.000810  0.000810  0.001177  0.000191
               *** Restarting incremental Fock matrix formation ***
  6    -78.97486332  -0.0054748391  0.000289  0.000554  0.000756  0.000114
  7    -78.97486580  -0.0000024818  0.000202  0.000720  0.000721  0.000095
                 **** Energy Check signals convergence ****
              ***Rediagonalizing the Fockian in SOSCF/NRSCF***

               *****************************************************
               *                     SUCCESS                       *
               *           SCF CONVERGED AFTER   8 CYCLES          *
               *****************************************************


----------------
TOTAL SCF ENERGY
----------------

Total Energy       :          -78.97486646 Eh           -2149.01537 eV

Components:
Nuclear Repulsion  :           36.32119660 Eh             988.35001 eV
Electronic Energy  :         -115.29606306 Eh           -3137.36538 eV
One Electron Energy:         -176.80654017 Eh           -4811.15055 eV
Two Electron Energy:           61.51047711 Eh            1673.78518 eV

Virial components:
Potential Energy   :         -157.73101408 Eh           -4292.07910 eV
Kinetic Energy     :           78.75614762 Eh            2143.06373 eV
Virial Ratio       :            2.00277717


---------------
SCF CONVERGENCE
---------------

  Last Energy change         ...   -6.6256e-07  Tolerance :   1.0000e-06
  Last MAX-Density change    ...    8.4864e-05  Tolerance :   1.0000e-05
  Last RMS-Density change    ...    1.2685e-05  Tolerance :   1.0000e-06
  Last Orbital Gradient      ...    3.5418e-05  Tolerance :   5.0000e-05
  Last Orbital Rotation      ...    5.8315e-05  Tolerance :   5.0000e-05

             **** THE GBW FILE WAS UPDATED (./task4/2.22986.gbw) ****
             **** DENSITY FILE WAS UPDATED (./task4/2.22986.scfp.tmp) ****
             **** ENERGY FILE WAS UPDATED (./task4/2.22986.en.tmp) ****
----------------
ORBITAL ENERGIES
----------------

  NO   OCC          E(Eh)            E(eV) 
   0   2.0000     -11.255096      -306.2667 
   1   2.0000     -11.251818      -306.1775 
   2   2.0000      -0.975763       -26.5519 
   3   2.0000      -0.911295       -24.7976 
   4   2.0000      -0.633969       -17.2512 
   5   2.0000      -0.546863       -14.8809 
   6   2.0000      -0.544924       -14.8281 
   7   2.0000      -0.409525       -11.1437 
   8   2.0000      -0.363707        -9.8970 
   9   0.0000       0.157326         4.2811 
  10   0.0000       0.234113         6.3705 
  11   0.0000       0.279332         7.6010 
  12   0.0000       0.292211         7.9515 
  13   0.0000       0.326969         8.8973 
  14   0.0000       0.342893         9.3306 
  15   0.0000       0.351253         9.5581 
  16   0.0000       0.685982        18.6665 
  17   0.0000       0.713539        19.4164 
  18   0.0000       0.776340        21.1253 
  19   0.0000       0.875808        23.8319 
  20   0.0000       0.921112        25.0647 
  21   0.0000       1.019380        27.7387 
  22   0.0000       1.046241        28.4697 
  23   0.0000       1.158739        31.5309 
  24   0.0000       1.201025        32.6815 
  25   0.0000       1.220028        33.1986 
  26   0.0000       1.223276        33.2870 
  27   0.0000       1.259578        34.2749 
  28   0.0000       1.276771        34.7427 
  29   0.0000       1.440092        39.1869 

                    ********************************
                    * MULLIKEN POPULATION ANALYSIS *
                    ********************************

-----------------------
MULLIKEN ATOMIC CHARGES
-----------------------
   0 C :   -0.428681
   1 C :   -0.460732
   2 H :    0.148322
   3 H :    0.144421
   4 H :    0.151933
   5 H :    0.154758
   6 H :    0.098351
   7 H :    0.191629
Sum of atomic charges:    0.0000000

--------------------------------
MULLIKEN REDUCED ORBITAL CHARGES
--------------------------------
  0 C s       :     3.382044  s :     3.382044
      pz      :     1.048030  p :     3.046637
      px      :     0.946054
      py      :     1.052553
  1 C s       :     3.351949  s :     3.351949
      pz      :     1.222756  p :     3.108783
      px      :     0.933953
      py      :     0.952075
  2 H s       :     0.851678  s :     0.851678
  3 H s       :     0.855579  s :     0.855579
  4 H s       :     0.848067  s :     0.848067
  5 H s       :     0.845242  s :     0.845242
  6 H s       :     0.901649  s :     0.901649
  7 H s       :     0.808371  s :     0.808371


                     *******************************
                     * LOEWDIN POPULATION ANALYSIS *
                     *******************************

----------------------
LOEWDIN ATOMIC CHARGES
----------------------
   0 C :   -0.312046
   1 C :   -0.456997
   2 H :    0.108799
   3 H :    0.105266
   4 H :    0.109691
   5 H :    0.174640
   6 H :    0.124820
   7 H :    0.145826

-------------------------------
LOEWDIN REDUCED ORBITAL CHARGES
-------------------------------
  0 C s       :     3.069817  s :     3.069817
      pz      :     1.132353  p :     3.242229
      px      :     0.976417
      py      :     1.133460
  1 C s       :     3.071750  s :     3.071750
      pz      :     1.344377  p :     3.385247
      px      :     0.974526
      py      :     1.066344
  2 H s       :     0.891201  s :     0.891201
  3 H s       :     0.894734  s :     0.894734
  4 H s       :     0.890309  s :     0.890309
  5 H s       :     0.825360  s :     0.825360
  6 H s       :     0.875180  s :     0.875180
  7 H s       :     0.854174  s :     0.854174


                      *****************************
                      * MAYER POPULATION ANALYSIS *
                      *****************************

  NA   - Mulliken gross atomic population
  ZA   - Total nuclear charge
  QA   - Mulliken gross atomic charge
  VA   - Mayer's total valence
  BVA  - Mayer's bonded valence
  FA   - Mayer's free valence

  ATOM       NA         ZA         QA         VA         BVA        FA
  0 C      6.4287     6.0000    -0.4287     3.8405     3.8405    -0.0000
  1 C      6.4607     6.0000    -0.4607     3.7334     3.7334     0.0000
  2 H      0.8517     1.0000     0.1483     0.9349     0.9349    -0.0000
  3 H      0.8556     1.0000     0.1444     0.9326     0.9326    -0.0000
  4 H      0.8481     1.0000     0.1519     0.9334     0.9334     0.0000
  5 H      0.8452     1.0000     0.1548     0.9170     0.9170    -0.0000
  6 H      0.9016     1.0000     0.0984     0.8866     0.8866     0.0000
  7 H      0.8084     1.0000     0.1916     0.9390     0.9390     0.0000

  Mayer bond orders larger than 0.1
B(  0-C ,  1-C ) :   0.9794 B(  0-C ,  2-H ) :   0.9531 B(  0-C ,  3-H ) :   0.9505 
B(  0-C ,  4-H ) :   0.9519 B(  1-C ,  5-H ) :   0.9113 B(  1-C ,  6-H ) :   0.9027 
B(  1-C ,  7-H ) :   0.9389 

-------
TIMINGS
-------

Total SCF time: 0 days 0 hours 0 min 2 sec 

Total time                  ....       2.281 sec
Sum of individual times     ....       2.274 sec  ( 99.7%)

Fock matrix formation       ....       2.008 sec  ( 88.0%)
Diagonalization             ....       0.008 sec  (  0.3%)
Density matrix formation    ....       0.000 sec  (  0.0%)
Population analysis         ....       0.001 sec  (  0.0%)
Initial guess               ....       0.182 sec  (  8.0%)
Orbital Transformation      ....       0.000 sec  (  0.0%)
Orbital Orthonormalization  ....       0.000 sec  (  0.0%)
DIIS solution               ....       0.001 sec  (  0.0%)
SOSCF solution              ....       0.005 sec  (  0.2%)

-------------------------   --------------------
FINAL SINGLE POINT ENERGY       -78.974866464805
-------------------------   --------------------


                            ***************************************
                            *     ORCA property calculations      *
                            ***************************************

                                    ---------------------
                                    Active property flags
                                    ---------------------
   (+) Dipole Moment


------------------------------------------------------------------------------
                       ORCA ELECTRIC PROPERTIES CALCULATION
------------------------------------------------------------------------------

Dipole Moment Calculation                       ... on
Quadrupole Moment Calculation                   ... off
Polarizability Calculation                      ... off
GBWName                                         ... ./task4/2.22986.gbw
Electron density file                           ... ./task4/2.22986.scfp.tmp
The origin for moment calculation is the CENTER OF MASS  = ( 2.106912, -0.032022 -0.055464)

-------------
DIPOLE MOMENT
-------------
                                X             Y             Z
Electronic contribution:      0.02052       0.25093       0.34489
Nuclear contribution   :     -0.00000      -0.37886      -0.65621
                        -----------------------------------------
Total Dipole Moment    :      0.02052      -0.12794      -0.31132
                        -----------------------------------------
Magnitude (a.u.)       :      0.33721
Magnitude (Debye)      :      0.85711


Timings for individual modules:

Sum of individual times         ...        2.675 sec (=   0.045 min)
GTO integral calculation        ...        0.366 sec (=   0.006 min)  13.7 %
SCF iterations                  ...        2.309 sec (=   0.038 min)  86.3 %
                             ****ORCA TERMINATED NORMALLY****
TOTAL RUN TIME: 0 days 0 hours 0 minutes 2 seconds 860 msec
